 Entering Gaussian System, Link 0=g09
 Input=KKK.gjf
 Output=KKK.log
 Initial command:
 /home/user/g09/l1.exe "/home/user/xiaoming2/Gau-208246.inp" -scrdir="/home/user/xiaoming2/"
 Entering Link 1 = /home/user/g09/l1.exe PID=    208248.
  
 Copyright (c) 1988,1990,1992,1993,1995,1998,2003,2009,2015,
            Gaussian, Inc.  All Rights Reserved.
  
 This is part of the Gaussian(R) 09 program.  It is based on
 the Gaussian(R) 03 system (copyright 2003, Gaussian, Inc.),
 the Gaussian(R) 98 system (copyright 1998, Gaussian, Inc.),
 the Gaussian(R) 94 system (copyright 1995, Gaussian, Inc.),
 the Gaussian 92(TM) system (copyright 1992, Gaussian, Inc.),
 the Gaussian 90(TM) system (copyright 1990, Gaussian, Inc.),
 the Gaussian 88(TM) system (copyright 1988, Gaussian, Inc.),
 the Gaussian 86(TM) system (copyright 1986, Carnegie Mellon
 University), and the Gaussian 82(TM) system (copyright 1983,
 Carnegie Mellon University). Gaussian is a federally registered
 trademark of Gaussian, Inc.
  
 This software contains proprietary and confidential information,
 including trade secrets, belonging to Gaussian, Inc.
  
 This software is provided under written license and may be
 used, copied, transmitted, or stored only in accord with that
 written license.
  
 The following legend is applicable only to US Government
 contracts under FAR:
  
                    RESTRICTED RIGHTS LEGEND
  
 Use, reproduction and disclosure by the US Government is
 subject to restrictions as set forth in subparagraphs (a)
 and (c) of the Commercial Computer Software - Restricted
 Rights clause in FAR 52.227-19.
  
 Gaussian, Inc.
 340 Quinnipiac St., Bldg. 40, Wallingford CT 06492
  
  
 ---------------------------------------------------------------
 Warning -- This program may not be used in any manner that
 competes with the business of Gaussian, Inc. or will provide
 assistance to any competitor of Gaussian, Inc.  The licensee
 of this program is prohibited from giving any competitor of
 Gaussian, Inc. access to this program.  By using this program,
 the user acknowledges that Gaussian, Inc. is engaged in the
 business of creating and licensing software in the field of
 computational chemistry and represents and warrants to the
 licensee that it is not a competitor of Gaussian, Inc. and that
 it will not use this program in any manner prohibited above.
 ---------------------------------------------------------------
  

 Cite this work as:
 Gaussian 09, Revision E.01,
 M. J. Frisch, G. W. Trucks, H. B. Schlegel, G. E. Scuseria, 
 M. A. Robb, J. R. Cheeseman, G. Scalmani, V. Barone, B. Mennucci, 
 G. A. Petersson, H. Nakatsuji, M. Caricato, X. Li, H. P. Hratchian, 
 A. F. Izmaylov, J. Bloino, G. Zheng, J. L. Sonnenberg, M. Hada, 
 M. Ehara, K. Toyota, R. Fukuda, J. Hasegawa, M. Ishida, T. Nakajima, 
 Y. Honda, O. Kitao, H. Nakai, T. Vreven, J. A. Montgomery, Jr., 
 J. E. Peralta, F. Ogliaro, M. Bearpark, J. J. Heyd, E. Brothers, 
 K. N. Kudin, V. N. Staroverov, T. Keith, R. Kobayashi, J. Normand, 
 K. Raghavachari, A. Rendell, J. C. Burant, S. S. Iyengar, J. Tomasi, 
 M. Cossi, N. Rega, J. M. Millam, M. Klene, J. E. Knox, J. B. Cross, 
 V. Bakken, C. Adamo, J. Jaramillo, R. Gomperts, R. E. Stratmann, 
 O. Yazyev, A. J. Austin, R. Cammi, C. Pomelli, J. W. Ochterski, 
 R. L. Martin, K. Morokuma, V. G. Zakrzewski, G. A. Voth, 
 P. Salvador, J. J. Dannenberg, S. Dapprich, A. D. Daniels, 
 O. Farkas, J. B. Foresman, J. V. Ortiz, J. Cioslowski, 
 and D. J. Fox, Gaussian, Inc., Wallingford CT, 2013.
 
 ******************************************
 Gaussian 09:  ES64L-G09RevE.01 30-Nov-2015
                19-Dec-2022 
 ******************************************
 %chk=KKK.chk
 %mem=20GB
 %nprocshared=10
 Will use up to   10 processors via shared memory.
 ----------------------------------------------------
 # b3lyp/6-311g(d,p) scrf=(solvent=cyclohexane) em=gd3bj
 ----------------------------------------------------
 1/38=1/1;
 2/12=2,17=6,18=5,40=1/2;
 3/5=1,6=6,7=1,11=2,16=1,25=1,30=1,70=2201,72=17,74=-5,124=41/1,2,3;
 4//1;
 5/5=2,38=5,53=17/2;
 6/7=2,8=2,9=2,10=2,28=1/1;
 99/5=1,9=1/99;
 ---------
 structure
 ---------
 Symbolic Z-matrix:
 Charge =  0 Multiplicity = 1
 C                    -2.10592   3.75887   1.37219 
 C                    -1.60939   2.45225   1.65816 
 C                    -0.21188   2.24566   1.63671 
 C                     0.65999   3.29197   1.26355 
 C                     0.10627   4.58203   1.02992 
 C                    -1.2546    4.80285   1.07649 
 C                     2.03624   3.00374   1.08155 
 C                     2.54388   1.74455   1.31007 
 C                     1.66772   0.72016   1.67168 
 C                     0.2946    0.97684   1.8377 
 C                     2.14438  -0.60363   1.83175 
 C                     3.59718  -0.90376   1.53491 
 C                     4.47681   0.0685    1.17786 
 C                     4.03719   1.51576   1.11742 
 C                    -2.49091   1.38189   1.89862 
 C                    -1.97837   0.12604   2.14472 
 C                    -0.59054  -0.09383   2.05152 
 C                     1.27779  -1.62753   2.17763 
 C                    -0.08789  -1.40771   2.12818 
 H                    -3.1833    3.97329   1.3661 
 H                    -1.66286   5.80538   0.86846 
 H                     0.75844   5.43093   0.77948 
 S                     3.13754   4.30396   0.51194 
 C                     2.65701   4.46181  -1.23339 
 C                     2.96302   3.18138  -2.01173 
 C                     5.95979  -0.17886   0.88315 
 C                     6.25679  -1.67143   0.68148 
 C                     5.51075  -2.52796   1.70543 
 C                     3.9995   -2.37751   1.53959 
 C                     6.48565   0.64885  -0.30936 
 C                     7.973     0.42359  -0.63106 
 C                     8.50736   1.32855  -1.74778 
 C                     9.98464   1.06424  -2.05257 
 C                     3.28419  -3.11759   2.64933 
 C                     1.75802  -3.01293   2.58907 
 C                    -1.05777  -2.59205   2.06931 
 C                    -0.44741  -3.98227   2.31334 
 C                     0.98833  -4.06645   1.78525 
 C                    -2.95029  -1.01289   2.458 
 C                    -2.22667  -2.25294   2.98803 
 C                    -3.99489   1.58351   1.82239 
 C                    -4.41168   1.44505   0.35172 
 C                    -5.92079   1.51544   0.10404 
 C                    -6.24923   1.33787  -1.38264 
 C                    -7.74867   1.34048  -1.66979 
 H                     4.30793   1.90329   0.12136 
 H                     4.6164    2.09498   1.85647 
 H                     3.21623   5.30828  -1.66384 
 H                     1.58606   4.70959  -1.30315 
 H                     2.40759   2.3215   -1.60609 
 H                     4.03795   2.94543  -1.96858 
 H                     2.68751   3.28116  -3.0733 
 H                     6.51277   0.14963   1.78411 
 H                     7.34337  -1.85551   0.7509 
 H                     5.94671  -1.97938  -0.33301 
 H                     5.80911  -2.21811   2.72168 
 H                     5.79509  -3.59013   1.60365 
 H                     3.70805  -2.8147    0.56619 
 H                     6.36608   1.72736  -0.10532 
 H                     5.88315   0.43088  -1.20904 
 H                     8.14329  -0.62717  -0.92399 
 H                     8.56627   0.5941    0.28525 
 H                     8.37737   2.38868  -1.46715 
 H                     7.9128    1.16975  -2.66479 
 H                     10.1387   0.01544  -2.35487 
 H                     10.6056   1.25664  -1.16283 
 H                     10.3522   1.70827  -2.86764 
 H                     3.60082  -4.17497   2.67354 
 H                     3.61071  -2.68109   3.60933 
 H                     1.43658  -3.16956   3.63832 
 H                    -1.45026  -2.61779   1.03237 
 H                    -1.09931  -4.75574   1.8718 
 H                    -0.42329  -4.19484   3.39756 
 H                     1.03608  -3.87534   0.70047 
 H                     1.39746  -5.07669   1.95504 
 H                    -3.69105  -0.70949   3.21521 
 H                    -3.51054  -1.28544   1.54522 
 H                    -2.93207  -3.09899   3.05123 
 H                    -1.86469  -2.07272   4.01381 
 H                    -4.30774   2.55944   2.22649 
 H                    -4.56147   0.86005   2.42527 
 H                    -4.04546   0.47701  -0.03761 
 H                    -3.91982   2.2271   -0.25392 
 H                    -6.31679   2.48283   0.46098 
 H                    -6.42849   0.72601   0.68724 
 H                    -5.80797   0.3883   -1.73574 
 H                    -5.76659   2.14424  -1.96398 
 H                    -7.95004   1.22211  -2.7468 
 H                    -8.20756   2.28727  -1.34131 
 H                    -8.25114   0.51571  -1.13841 
 C                     6.50685   2.08331   4.30425 
 C                     5.29705   1.45885   4.73073 
 C                     4.1063    2.21856   4.69448 
 C                     4.11204   3.55386   4.23105 
 C                     5.34218   4.09752   3.76577 
 C                     6.51668   3.37507   3.81893 
 C                     2.90187   4.29431   4.25934 
 C                     1.72573   3.7271    4.69715 
 C                     1.73941   2.40862   5.15472 
 C                     2.93267   1.66568   5.16419 
 C                     0.54992   1.80049   5.62273 
 C                    -0.71786   2.62118   5.69955 
 C                    -0.76128   3.91682   5.29496 
 C                     0.4582    4.57136   4.67984 
 C                     5.29201   0.13352   5.20599 
 C                     4.1309   -0.39      5.7377 
 C                     2.95418   0.38591   5.74532 
 C                     0.56069   0.49155   6.0744 
 C                     1.77223  -0.13988   6.30261 
 H                     7.46928   1.55552   4.34755 
 H                     7.46233   3.82713   3.47742 
 H                     5.3814    5.12115   3.36631 
 S                     2.88602   6.00807   3.70284 
 C                     3.73562   6.86011   5.06545 
 C                     2.8578    6.91316   6.31573 
 C                    -2.01126   4.79838   5.35855 
 C                    -3.1221    4.16192   6.20594 
 C                    -3.2196    2.65495   5.9571 
 C                    -1.92193   1.95863   6.3676 
 C                    -1.685     6.22239   5.85734 
 C                    -2.89172   7.15449   6.06031 
 C                    -2.46922   8.5758    6.45389 
 C                    -3.65594   9.49627   6.74966 
 C                    -1.98195   0.48812   6.01111 
 C                    -0.71123  -0.29227   6.36001 
 C                     1.83893  -1.38438   7.19211 
 C                     0.48839  -1.98568   7.61746 
 C                    -0.60023  -0.91723   7.75395 
 C                     4.1546   -1.80241   6.32992 
 C                     2.75038  -2.38778   6.49755 
 C                     6.56014  -0.70766   5.17541 
 C                     7.32982  -0.6016    6.49897 
 C                     8.48932  -1.60228   6.56629 
 C                     9.21933  -1.61294   7.91253 
 C                     10.3341  -2.65997   7.96293 
 H                     0.66527   5.49661   5.24329 
 H                     0.21004   4.87352   3.64884 
 H                     3.9729    7.88401   4.73344 
 H                     4.69106   6.35688   5.28167 
 H                     2.59383   5.90279   6.66358 
 H                     1.92322   7.45978   6.11392 
 H                     3.36928   7.42291   7.14611 
 H                    -2.39064   4.88011   4.32218 
 H                    -4.08673   4.65382   5.98918 
 H                    -2.91639   4.32983   7.27832 
 H                    -3.42287   2.47454   4.88666 
 H                    -4.06932   2.22547   6.51732 
 H                    -1.80352   2.0594    7.46265 
 H                    -1.01087   6.72487   5.14109 
 H                    -1.13382   6.15712   6.81274 
 H                    -3.55532   6.75119   6.84578 
 H                    -3.48953   7.19399   5.13228 
 H                    -1.85837   9.01292   5.64425 
 H                    -1.82043   8.52392   7.34645 
 H                    -4.26331   9.09599   7.57768 
 H                    -4.30864   9.59603   5.86741 
 H                    -3.32018   10.5059   7.03756 
 H                    -2.86711   0.01622   6.47207 
 H                    -2.13068   0.4077    4.92057 
 H                    -0.72436  -1.15173   5.65941 
 H                     2.33997  -1.06901   8.12968 
 H                     0.61911  -2.56568   8.54689 
 H                     0.15043  -2.71406   6.8579 
 H                    -0.34786  -0.17066   8.52533 
 H                    -1.55268  -1.38528   8.05316 
 H                     4.72969  -2.50369   5.70834 
 H                     4.64341  -1.77627   7.32074 
 H                     2.80297  -3.32753   7.07512 
 H                     2.32972  -2.64891   5.51388 
 H                     7.21971  -0.42458   4.33972 
 H                     6.3428   -1.76566   4.967 
 H                     6.64928  -0.79391   7.34668 
 H                     7.71378   0.42444   6.6338 
 H                     9.21207  -1.38552   5.75951 
 H                     8.09551  -2.61652   6.37123 
 H                     8.49382  -1.81447   8.72063 
 H                     9.64278  -0.61328   8.11273 
 H                     10.8504  -2.65394   8.93647 
 H                     11.0869  -2.46738   7.1818 
 H                     9.9301   -3.67325   7.80452 
 
 Stoichiometry    C82H96S2
 Framework group  C1[X(C82H96S2)]
 Deg. of freedom   534
 Full point group                 C1      NOp   1
 Largest Abelian subgroup         C1      NOp   1
 Largest concise Abelian subgroup C1      NOp   1
                         Standard orientation:                         
 ---------------------------------------------------------------------
 Center     Atomic      Atomic             Coordinates (Angstroms)
 Number     Number       Type             X           Y           Z
 ---------------------------------------------------------------------
      1          6           0        4.425141   -0.340205    1.973045
      2          6           0        3.477890   -1.085082    1.209206
      3          6           0        2.102757   -0.840506    1.422220
      4          6           0        1.683850    0.063019    2.423383
      5          6           0        2.676986    0.804736    3.122655
      6          6           0        4.022648    0.595647    2.902700
      7          6           0        0.302426    0.152317    2.729901
      8          6           0       -0.636418   -0.581284    2.040060
      9          6           0       -0.205215   -1.474615    1.058321
     10          6           0        1.162123   -1.596496    0.751022
     11          6           0       -1.137268   -2.304805    0.389514
     12          6           0       -2.591523   -2.261824    0.804386
     13          6           0       -3.045154   -1.406697    1.758064
     14          6           0       -2.104710   -0.414828    2.408631
     15          6           0        3.900130   -2.079884    0.307734
     16          6           0        2.957533   -2.800179   -0.394479
     17          6           0        1.588258   -2.606521   -0.128632
     18          6           0       -0.714415   -3.203068   -0.576566
     19          6           0        0.637643   -3.464450   -0.716094
     20          1           0        5.506007   -0.496504    1.854474
     21          1           0        4.774556    1.164888    3.473330
     22          1           0        2.387223    1.548439    3.878703
     23         16           0       -0.232220    1.225284    4.068103
     24          6           0        0.314209    0.296973    5.531544
     25          6           0       -0.420846   -1.039084    5.648170
     26          6           0       -4.508205   -1.311377    2.202662
     27          6           0       -5.326327   -2.518984    1.724116
     28          6           0       -4.970479   -2.893873    0.284835
     29          6           0       -3.505642   -3.315141    0.180902
     30          6           0       -4.665773   -1.113642    3.725748
     31          6           0       -6.124152   -1.013424    4.204841
     32          6           0       -6.263143   -0.711944    5.701957
     33          6           0       -7.726859   -0.637128    6.145861
     34          6           0       -3.137776   -3.543072   -1.269487
     35          6           0       -1.678349   -3.950367   -1.488494
     36          6           0        1.107469   -4.732889   -1.435204
     37          6           0        0.024716   -5.532118   -2.179299
     38          6           0       -1.329060   -5.442351   -1.467579
     39          6           0        3.437013   -3.839000   -1.409805
     40          6           0        2.297082   -4.335142   -2.302376
     41          6           0        5.374809   -2.411394    0.153324
     42          6           0        5.746871   -3.413979    1.254302
     43          6           0        7.182346   -3.941189    1.182389
     44          6           0        7.458282   -4.956754    2.296894
     45          6           0        8.860879   -5.555753    2.228311
     46          1           0       -2.190867   -0.543018    3.500308
     47          1           0       -2.448979    0.607294    2.176426
     48          1           0        0.114305    0.916929    6.420487
     49          1           0        1.402830    0.136064    5.484574
     50          1           0       -0.228787   -1.681539    4.774783
     51          1           0       -1.508202   -0.881399    5.724327
     52          1           0       -0.102703   -1.595657    6.543606
     53          1           0       -4.923767   -0.412984    1.707062
     54          1           0       -6.406149   -2.302678    1.805084
     55          1           0       -5.126482   -3.387021    2.377371
     56          1           0       -5.158767   -2.026929   -0.371476
     57          1           0       -5.621571   -3.709527   -0.076000
     58          1           0       -3.371442   -4.259361    0.741288
     59          1           0       -4.164407   -0.182039    4.041743
     60          1           0       -4.163702   -1.938025    4.262648
     61          1           0       -6.660418   -1.953937    3.988581
     62          1           0       -6.635418   -0.221060    3.629150
     63          1           0       -5.760641    0.241768    5.941647
     64          1           0       -5.746371   -1.495713    6.283574
     65          1           0       -8.247086   -1.585843    5.935121
     66          1           0       -8.255233    0.167207    5.609100
     67          1           0       -7.813451   -0.437004    7.225985
     68          1           0       -3.820154   -4.279511   -1.728737
     69          1           0       -3.304531   -2.595831   -1.811405
     70          1           0       -1.461730   -3.625330   -2.525899
     71          1           0        1.487868   -5.412077   -0.645295
     72          1           0        0.358361   -6.576176   -2.308943
     73          1           0       -0.101436   -5.129490   -3.200709
     74          1           0       -1.277616   -5.840768   -0.440852
     75          1           0       -2.083692   -6.037419   -2.009085
     76          1           0        4.219139   -3.425056   -2.066367
     77          1           0        3.880108   -4.701071   -0.878927
     78          1           0        2.641876   -5.190188   -2.908510
     79          1           0        2.001909   -3.547595   -3.015381
     80          1           0        6.013626   -1.515618    0.209075
     81          1           0        5.622500   -2.845461   -0.825504
     82          1           0        5.060944   -4.279691    1.200918
     83          1           0        5.590209   -2.957056    2.247781
     84          1           0        7.896507   -3.101846    1.256836
     85          1           0        7.351574   -4.420469    0.201201
     86          1           0        6.708453   -5.766242    2.237184
     87          1           0        7.318525   -4.470522    3.279328
     88          1           0        9.030525   -6.272259    3.048282
     89          1           0        9.626674   -4.766627    2.303994
     90          1           0        9.013535   -6.088686    1.275548
     91          6           0       -4.270141    2.442933    0.479556
     92          6           0       -3.383655    1.802335   -0.436538
     93          6           0       -1.996897    2.031631   -0.292716
     94          6           0       -1.502126    2.858128    0.741659
     95          6           0       -2.436201    3.420103    1.656527
     96          6           0       -3.794600    3.224482    1.512666
     97          6           0       -0.105897    3.099837    0.817145
     98          6           0        0.769976    2.520995   -0.074202
     99          6           0        0.263441    1.710722   -1.091466
    100          6           0       -1.118871    1.481615   -1.203904
    101          6           0        1.136022    1.110927   -2.030924
    102          6           0        2.614072    1.424662   -1.970605
    103          6           0        3.138649    2.235355   -1.015693
    104          6           0        2.258670    2.804567    0.077729
    105          6           0       -3.875706    0.990179   -1.476094
    106          6           0       -3.000052    0.499692   -2.423521
    107          6           0       -1.621459    0.769013   -2.306443
    108          6           0        0.635834    0.304316   -3.039212
    109          6           0       -0.727858    0.283777   -3.281149
    110          1           0       -5.359740    2.333776    0.392566
    111          1           0       -4.500539    3.692173    2.218468
    112          1           0       -2.088249    4.041134    2.494486
    113         16           0        0.549789    4.173547    2.107160
    114          6           0        0.039051    5.819946    1.530083
    115          6           0        0.845221    6.249703    0.304530
    116          6           0        4.622747    2.596164   -0.911275
    117          6           0        5.402747    2.195161   -2.171399
    118          6           0        4.947444    0.832703   -2.699407
    119          6           0        3.475520    0.881282   -3.109772
    120          6           0        4.828911    4.091521   -0.588097
    121          6           0        6.287958    4.578359   -0.569361
    122          6           0        6.406119    6.045697   -0.137515
    123          6           0        7.840089    6.577638   -0.199301
    124          6           0        3.001271   -0.496890   -3.520663
    125          6           0        1.525097   -0.555666   -3.924292
    126          6           0       -1.266920   -0.226330   -4.620423
    127          6           0       -0.241006   -0.891394   -5.554037
    128          6           0        1.159712   -0.294765   -5.388662
    129          6           0       -3.553522   -0.312392   -3.598419
    130          6           0       -2.465695   -1.115223   -4.315835
    131          6           0       -5.362689    0.684286   -1.585573
    132          6           0       -6.071371    1.690561   -2.502441
    133          6           0       -7.518058    1.275620   -2.794433
    134          6           0       -8.233128    2.188565   -3.794730
    135          6           0       -9.654778    1.714327   -4.103816
    136          1           0        2.391494    3.899453    0.082484
    137          1           0        2.624768    2.433773    1.049496
    138          1           0        0.201256    6.535976    2.352211
    139          1           0       -1.039174    5.818426    1.305840
    140          1           0        0.712422    5.544698   -0.530251
    141          1           0        1.919591    6.299664    0.541585
    142          1           0        0.536333    7.243562   -0.052991
    143          1           0        5.030299    2.007041   -0.067765
    144          1           0        6.485384    2.184585   -1.954037
    145          1           0        5.247318    2.950121   -2.962845
    146          1           0        5.095979    0.069507   -1.915075
    147          1           0        5.567203    0.525920   -3.560863
    148          1           0        3.376167    1.568160   -3.970956
    149          1           0        4.402945    4.322411    0.404472
    150          1           0        4.269509    4.703307   -1.318602
    151          1           0        6.738804    4.465919   -1.571396
    152          1           0        6.880645    3.946222    0.115696
    153          1           0        6.017305    6.156665    0.890220
    154          1           0        5.762322    6.664808   -0.787523
    155          1           0        8.238720    6.506716   -1.224388
    156          1           0        8.504814    6.000958    0.463961
    157          1           0        7.890677    7.635029    0.107845
    158          1           0        3.640829   -0.899949   -4.325141
    159          1           0        3.136175   -1.174290   -2.659969
    160          1           0        1.239233   -1.611109   -3.739902
    161          1           0       -1.639845    0.665031   -5.164426
    162          1           0       -0.597190   -0.830770   -6.596526
    163          1           0       -0.175295   -1.970688   -5.324933
    164          1           0        1.179985    0.779446   -5.637131
    165          1           0        1.867124   -0.799321   -6.067445
    166          1           0       -4.330499   -1.023250   -3.282394
    167          1           0       -4.022272    0.372074   -4.328570
    168          1           0       -2.872575   -1.548798   -5.246396
    169          1           0       -2.146575   -1.963100   -3.689721
    170          1           0       -5.852619    0.673334   -0.598966
    171          1           0       -5.543044   -0.334651   -1.958777
    172          1           0       -5.528977    1.773949   -3.460348
    173          1           0       -6.055959    2.695784   -2.046755
    174          1           0       -8.091738    1.245797   -1.850903
    175          1           0       -7.518549    0.245461   -3.195169
    176          1           0       -7.651334    2.230407   -4.732691
    177          1           0       -8.265669    3.218686   -3.399118
    178          1           0      -10.156053    2.382004   -4.823061
    179          1           0      -10.265875    1.687619   -3.187405
    180          1           0       -9.646314    0.700970   -4.537499
 ---------------------------------------------------------------------
 Rotational constants (GHZ):      0.0290178      0.0190135      0.0181269
 Standard basis: 6-31G(d) (6D, 7F)
 There are  1460 symmetry adapted cartesian basis functions of A   symmetry.
 There are  1460 symmetry adapted basis functions of A   symmetry.
  1460 basis functions,  2784 primitive gaussians,  1460 cartesian basis functions
   310 alpha electrons      310 beta electrons
       nuclear repulsion energy     17186.9880798833 Hartrees.
 NAtoms=  180 NActive=  180 NUniq=  180 SFac= 1.00D+00 NAtFMM=   60 NAOKFM=T Big=T
 Integral buffers will be    131072 words long.
 Raffenetti 2 integral format.
 Two-electron integral symmetry is turned on.
 Nuclear repulsion after empirical dispersion term =    17186.4712746534 Hartrees.
 ------------------------------------------------------------------------------
 Polarizable Continuum Model (PCM)
 =================================
 Model                : PCM (using non-symmetric T matrix).
 Atomic radii         : UFF (Universal Force Field).
 Polarization charges : Total charges.
 Charge compensation  : None.
 Solution method      : On-the-fly selection.
 Cavity type          : Scaled VdW (van der Waals Surface) (Alpha=1.100).
 Cavity algorithm     : GePol (No added spheres)
                        Default sphere list used, NSphG=  180.
                        Lebedev-Laikov grids with approx.  5.0 points / Ang**2.
                        Smoothing algorithm: York/Karplus (Gamma=1.0000).
                        Polarization charges: spherical gaussians, with
                                              point-specific exponents (IZeta= 3).
                        Self-potential: point-specific (ISelfS= 7).
                        Self-field    : sphere-specific E.n sum rule (ISelfD= 2).
 Solvent              : CycloHexane, Eps=   2.016500 Eps(inf)=   2.035188
 ------------------------------------------------------------------------------
 One-electron integrals computed using PRISM.
 NBasis=  1460 RedAO= T EigKep=  9.13D-05  NBF=  1460
 NBsUse=  1460 1.00D-06 EigRej= -1.00D+00 NBFU=  1460
 ExpMin= 1.17D-01 ExpMax= 2.19D+04 ExpMxC= 3.30D+03 IAcc=1 IRadAn=         1 AccDes= 0.00D+00
 Harris functional with IExCor=  402 and IRadAn=       1 diagonalized for initial guess.
 HarFok:  IExCor=  402 AccDes= 0.00D+00 IRadAn=         1 IDoV= 1 UseB2=F ITyADJ=14
 ICtDFT=  3500011 ScaDFX=  1.000000  1.000000  1.000000  1.000000
 FoFCou: FMM=F IPFlag=           0 FMFlag=      100000 FMFlg1=        2001
         NFxFlg=           0 DoJE=T BraDBF=F KetDBF=T FulRan=T
         wScrn=  0.000000 ICntrl=     500 IOpCl=  0 I1Cent=   200000004 NGrid=           0
         NMat0=    1 NMatS0=      1 NMatT0=    0 NMatD0=    1 NMtDS0=    0 NMtDT0=    0
 Petite list used in FoFCou.
 Requested convergence on RMS density matrix=1.00D-08 within 128 cycles.
 Requested convergence on MAX density matrix=1.00D-06.
 Requested convergence on             energy=1.00D-06.
 No special actions if energy rises.
 Inv3:  Mode=1 IEnd=   286827852.
 Iteration    1 A*A^-1 deviation from unit magnitude is 1.42D-14 for   9772.
 Iteration    1 A*A^-1 deviation from orthogonality  is 3.58D-15 for   9766   2639.
 Iteration    1 A^-1*A deviation from unit magnitude is 1.42D-14 for   9772.
 Iteration    1 A^-1*A deviation from orthogonality  is 1.32D-14 for   9507   6849.
 Error on total polarization charges =  0.01108
 SCF Done:  E(RB3LYP) =  -3979.60006330     A.U. after   14 cycles
            NFock= 14  Conv=0.63D-08     -V/T= 2.0084
 Hyperfine terms turned off by default for NAtoms > 100.

 **********************************************************************

            Population analysis using the SCF density.

 **********************************************************************

 Orbital symmetries:
       Occupied  (A) (A) (A) (A) (A) (A) (A) (A) (A) (A) (A) (A)
                 (A) (A) (A) (A) (A) (A) (A) (A) (A) (A) (A) (A)
                 (A) (A) (A) (A) (A) (A) (A) (A) (A) (A) (A) (A)
                 (A) (A) (A) (A) (A) (A) (A) (A) (A) (A) (A) (A)
                 (A) (A) (A) (A) (A) (A) (A) (A) (A) (A) (A) (A)
                 (A) (A) (A) (A) (A) (A) (A) (A) (A) (A) (A) (A)
                 (A) (A) (A) (A) (A) (A) (A) (A) (A) (A) (A) (A)
                 (A) (A) (A) (A) (A) (A) (A) (A) (A) (A) (A) (A)
                 (A) (A) (A) (A) (A) (A) (A) (A) (A) (A) (A) (A)
                 (A) (A) (A) (A) (A) (A) (A) (A) (A) (A) (A) (A)
                 (A) (A) (A) (A) (A) (A) (A) (A) (A) (A) (A) (A)
                 (A) (A) (A) (A) (A) (A) (A) (A) (A) (A) (A) (A)
                 (A) (A) (A) (A) (A) (A) (A) (A) (A) (A) (A) (A)
                 (A) (A) (A) (A) (A) (A) (A) (A) (A) (A) (A) (A)
                 (A) (A) (A) (A) (A) (A) (A) (A) (A) (A) (A) (A)
                 (A) (A) (A) (A) (A) (A) (A) (A) (A) (A) (A) (A)
                 (A) (A) (A) (A) (A) (A) (A) (A) (A) (A) (A) (A)
                 (A) (A) (A) (A) (A) (A) (A) (A) (A) (A) (A) (A)
                 (A) (A) (A) (A) (A) (A) (A) (A) (A) (A) (A) (A)
                 (A) (A) (A) (A) (A) (A) (A) (A) (A) (A) (A) (A)
                 (A) (A) (A) (A) (A) (A) (A) (A) (A) (A) (A) (A)
                 (A) (A) (A) (A) (A) (A) (A) (A) (A) (A) (A) (A)
                 (A) (A) (A) (A) (A) (A) (A) (A) (A) (A) (A) (A)
                 (A) (A) (A) (A) (A) (A) (A) (A) (A) (A) (A) (A)
                 (A) (A) (A) (A) (A) (A) (A) (A) (A) (A) (A) (A)
                 (A) (A) (A) (A) (A) (A) (A) (A) (A) (A)
       Virtual   (A) (A) (A) (A) (A) (A) (A) (A) (A) (A) (A) (A)
                 (A) (A) (A) (A) (A) (A) (A) (A) (A) (A) (A) (A)
                 (A) (A) (A) (A) (A) (A) (A) (A) (A) (A) (A) (A)
                 (A) (A) (A) (A) (A) (A) (A) (A) (A) (A) (A) (A)
                 (A) (A) (A) (A) (A) (A) (A) (A) (A) (A) (A) (A)
                 (A) (A) (A) (A) (A) (A) (A) (A) (A) (A) (A) (A)
                 (A) (A) (A) (A) (A) (A) (A) (A) (A) (A) (A) (A)
                 (A) (A) (A) (A) (A) (A) (A) (A) (A) (A) (A) (A)
                 (A) (A) (A) (A) (A) (A) (A) (A) (A) (A) (A) (A)
                 (A) (A) (A) (A) (A) (A) (A) (A) (A) (A) (A) (A)
                 (A) (A) (A) (A) (A) (A) (A) (A) (A) (A) (A) (A)
                 (A) (A) (A) (A) (A) (A) (A) (A) (A) (A) (A) (A)
                 (A) (A) (A) (A) (A) (A) (A) (A) (A) (A) (A) (A)
                 (A) (A) (A) (A) (A) (A) (A) (A) (A) (A) (A) (A)
                 (A) (A) (A) (A) (A) (A) (A) (A) (A) (A) (A) (A)
                 (A) (A) (A) (A) (A) (A) (A) (A) (A) (A) (A) (A)
                 (A) (A) (A) (A) (A) (A) (A) (A) (A) (A) (A) (A)
                 (A) (A) (A) (A) (A) (A) (A) (A) (A) (A) (A) (A)
                 (A) (A) (A) (A) (A) (A) (A) (A) (A) (A) (A) (A)
                 (A) (A) (A) (A) (A) (A) (A) (A) (A) (A) (A) (A)
                 (A) (A) (A) (A) (A) (A) (A) (A) (A) (A) (A) (A)
                 (A) (A) (A) (A) (A) (A) (A) (A) (A) (A) (A) (A)
                 (A) (A) (A) (A) (A) (A) (A) (A) (A) (A) (A) (A)
                 (A) (A) (A) (A) (A) (A) (A) (A) (A) (A) (A) (A)
                 (A) (A) (A) (A) (A) (A) (A) (A) (A) (A) (A) (A)
                 (A) (A) (A) (A) (A) (A) (A) (A) (A) (A) (A) (A)
                 (A) (A) (A) (A) (A) (A) (A) (A) (A) (A) (A) (A)
                 (A) (A) (A) (A) (A) (A) (A) (A) (A) (A) (A) (A)
                 (A) (A) (A) (A) (A) (A) (A) (A) (A) (A) (A) (A)
                 (A) (A) (A) (A) (A) (A) (A) (A) (A) (A) (A) (A)
                 (A) (A) (A) (A) (A) (A) (A) (A) (A) (A) (A) (A)
                 (A) (A) (A) (A) (A) (A) (A) (A) (A) (A) (A) (A)
                 (A) (A) (A) (A) (A) (A) (A) (A) (A) (A) (A) (A)
                 (A) (A) (A) (A) (A) (A) (A) (A) (A) (A) (A) (A)
                 (A) (A) (A) (A) (A) (A) (A) (A) (A) (A) (A) (A)
                 (A) (A) (A) (A) (A) (A) (A) (A) (A) (A) (A) (A)
                 (A) (A) (A) (A) (A) (A) (A) (A) (A) (A) (A) (A)
                 (A) (A) (A) (A) (A) (A) (A) (A) (A) (A) (A) (A)
                 (A) (A) (A) (A) (A) (A) (A) (A) (A) (A) (A) (A)
                 (A) (A) (A) (A) (A) (A) (A) (A) (A) (A) (A) (A)
                 (A) (A) (A) (A) (A) (A) (A) (A) (A) (A) (A) (A)
                 (A) (A) (A) (A) (A) (A) (A) (A) (A) (A) (A) (A)
                 (A) (A) (A) (A) (A) (A) (A) (A) (A) (A) (A) (A)
                 (A) (A) (A) (A) (A) (A) (A) (A) (A) (A) (A) (A)
                 (A) (A) (A) (A) (A) (A) (A) (A) (A) (A) (A) (A)
                 (A) (A) (A) (A) (A) (A) (A) (A) (A) (A) (A) (A)
                 (A) (A) (A) (A) (A) (A) (A) (A) (A) (A) (A) (A)
                 (A) (A) (A) (A) (A) (A) (A) (A) (A) (A) (A) (A)
                 (A) (A) (A) (A) (A) (A) (A) (A) (A) (A) (A) (A)
                 (A) (A) (A) (A) (A) (A) (A) (A) (A) (A) (A) (A)
                 (A) (A) (A) (A) (A) (A) (A) (A) (A) (A) (A) (A)
                 (A) (A) (A) (A) (A) (A) (A) (A) (A) (A) (A) (A)
                 (A) (A) (A) (A) (A) (A) (A) (A) (A) (A) (A) (A)
                 (A) (A) (A) (A) (A) (A) (A) (A) (A) (A) (A) (A)
                 (A) (A) (A) (A) (A) (A) (A) (A) (A) (A) (A) (A)
                 (A) (A) (A) (A) (A) (A) (A) (A) (A) (A) (A) (A)
                 (A) (A) (A) (A) (A) (A) (A) (A) (A) (A) (A) (A)
                 (A) (A) (A) (A) (A) (A) (A) (A) (A) (A) (A) (A)
                 (A) (A) (A) (A) (A) (A) (A) (A) (A) (A) (A) (A)
                 (A) (A) (A) (A) (A) (A) (A) (A) (A) (A) (A) (A)
                 (A) (A) (A) (A) (A) (A) (A) (A) (A) (A) (A) (A)
                 (A) (A) (A) (A) (A) (A) (A) (A) (A) (A) (A) (A)
                 (A) (A) (A) (A) (A) (A) (A) (A) (A) (A) (A) (A)
                 (A) (A) (A) (A) (A) (A) (A) (A) (A) (A) (A) (A)
                 (A) (A) (A) (A) (A) (A) (A) (A) (A) (A) (A) (A)
                 (A) (A) (A) (A) (A) (A) (A) (A) (A) (A) (A) (A)
                 (A) (A) (A) (A) (A) (A) (A) (A) (A) (A) (A) (A)
                 (A) (A) (A) (A) (A) (A) (A) (A) (A) (A) (A) (A)
                 (A) (A) (A) (A) (A) (A) (A) (A) (A) (A) (A) (A)
                 (A) (A) (A) (A) (A) (A) (A) (A) (A) (A) (A) (A)
                 (A) (A) (A) (A) (A) (A) (A) (A) (A) (A) (A) (A)
                 (A) (A) (A) (A) (A) (A) (A) (A) (A) (A) (A) (A)
                 (A) (A) (A) (A) (A) (A) (A) (A) (A) (A) (A) (A)
                 (A) (A) (A) (A) (A) (A) (A) (A) (A) (A) (A) (A)
                 (A) (A) (A) (A) (A) (A) (A) (A) (A) (A) (A) (A)
                 (A) (A) (A) (A) (A) (A) (A) (A) (A) (A) (A) (A)
                 (A) (A) (A) (A) (A) (A) (A) (A) (A) (A) (A) (A)
                 (A) (A) (A) (A) (A) (A) (A) (A) (A) (A) (A) (A)
                 (A) (A) (A) (A) (A) (A) (A) (A) (A) (A) (A) (A)
                 (A) (A) (A) (A) (A) (A) (A) (A) (A) (A) (A) (A)
                 (A) (A) (A) (A) (A) (A) (A) (A) (A) (A) (A) (A)
                 (A) (A) (A) (A) (A) (A) (A) (A) (A) (A) (A) (A)
                 (A) (A) (A) (A) (A) (A) (A) (A) (A) (A) (A) (A)
                 (A) (A) (A) (A) (A) (A) (A) (A) (A) (A) (A) (A)
                 (A) (A) (A) (A) (A) (A) (A) (A) (A) (A) (A) (A)
                 (A) (A) (A) (A) (A) (A) (A) (A) (A) (A) (A) (A)
                 (A) (A) (A) (A) (A) (A) (A) (A) (A) (A) (A) (A)
                 (A) (A) (A) (A) (A) (A) (A) (A) (A) (A) (A) (A)
                 (A) (A) (A) (A) (A) (A) (A) (A) (A) (A) (A) (A)
                 (A) (A) (A) (A) (A) (A) (A) (A) (A) (A) (A) (A)
                 (A) (A) (A) (A) (A) (A) (A) (A) (A) (A) (A) (A)
                 (A) (A) (A) (A) (A) (A) (A) (A) (A) (A) (A) (A)
                 (A) (A) (A) (A) (A) (A) (A) (A) (A) (A) (A) (A)
                 (A) (A) (A) (A) (A) (A) (A) (A) (A) (A) (A) (A)
                 (A) (A) (A) (A) (A) (A) (A) (A) (A) (A) (A) (A)
                 (A) (A) (A) (A) (A) (A) (A) (A) (A) (A)
 The electronic state is 1-A.
 Alpha  occ. eigenvalues --  -88.85513 -88.85489 -10.20396 -10.20388 -10.19735
 Alpha  occ. eigenvalues --  -10.19726 -10.18991 -10.18955 -10.18921 -10.18834
 Alpha  occ. eigenvalues --  -10.18827 -10.18806 -10.18757 -10.18648 -10.18593
 Alpha  occ. eigenvalues --  -10.18529 -10.18520 -10.18484 -10.18441 -10.18434
 Alpha  occ. eigenvalues --  -10.18416 -10.18391 -10.18364 -10.18315 -10.18296
 Alpha  occ. eigenvalues --  -10.18272 -10.18174 -10.18151 -10.18134 -10.18128
 Alpha  occ. eigenvalues --  -10.18125 -10.18102 -10.18037 -10.18036 -10.18028
 Alpha  occ. eigenvalues --  -10.18024 -10.18003 -10.18000 -10.17986 -10.17971
 Alpha  occ. eigenvalues --  -10.17965 -10.17958 -10.17954 -10.17950 -10.17939
 Alpha  occ. eigenvalues --  -10.17939 -10.17908 -10.17882 -10.17882 -10.17873
 Alpha  occ. eigenvalues --  -10.17843 -10.17837 -10.17820 -10.17786 -10.17767
 Alpha  occ. eigenvalues --  -10.17763 -10.17755 -10.17724 -10.17713 -10.17707
 Alpha  occ. eigenvalues --  -10.17593 -10.17590 -10.17587 -10.17559 -10.17468
 Alpha  occ. eigenvalues --  -10.17428 -10.17404 -10.17404 -10.17378 -10.17362
 Alpha  occ. eigenvalues --  -10.17356 -10.17332 -10.17316 -10.17300 -10.17265
 Alpha  occ. eigenvalues --  -10.17261 -10.17238 -10.17212 -10.17190 -10.17159
 Alpha  occ. eigenvalues --  -10.17157 -10.17071 -10.17064 -10.16996  -7.91565
 Alpha  occ. eigenvalues --   -7.91551  -5.88094  -5.88078  -5.87712  -5.87695
 Alpha  occ. eigenvalues --   -5.87032  -5.87020  -0.89950  -0.89755  -0.86481
 Alpha  occ. eigenvalues --   -0.86368  -0.85673  -0.85528  -0.83410  -0.83225
 Alpha  occ. eigenvalues --   -0.82523  -0.82378  -0.81370  -0.81262  -0.80451
 Alpha  occ. eigenvalues --   -0.80371  -0.79267  -0.79179  -0.78628  -0.78558
 Alpha  occ. eigenvalues --   -0.78004  -0.77901  -0.77834  -0.77747  -0.76689
 Alpha  occ. eigenvalues --   -0.76587  -0.74960  -0.74909  -0.74399  -0.74325
 Alpha  occ. eigenvalues --   -0.73074  -0.72992  -0.72761  -0.72645  -0.72178
 Alpha  occ. eigenvalues --   -0.72132  -0.71383  -0.71260  -0.69932  -0.69863
 Alpha  occ. eigenvalues --   -0.68525  -0.68404  -0.67328  -0.67233  -0.65803
 Alpha  occ. eigenvalues --   -0.65690  -0.65419  -0.65364  -0.63267  -0.63173
 Alpha  occ. eigenvalues --   -0.62337  -0.62214  -0.61978  -0.61870  -0.61473
 Alpha  occ. eigenvalues --   -0.61433  -0.60775  -0.60687  -0.59149  -0.59102
 Alpha  occ. eigenvalues --   -0.58999  -0.58896  -0.58341  -0.58267  -0.57553
 Alpha  occ. eigenvalues --   -0.57493  -0.57196  -0.57160  -0.56728  -0.56647
 Alpha  occ. eigenvalues --   -0.56138  -0.56001  -0.55156  -0.55061  -0.54545
 Alpha  occ. eigenvalues --   -0.54397  -0.51134  -0.51020  -0.50590  -0.50452
 Alpha  occ. eigenvalues --   -0.50308  -0.50189  -0.49955  -0.49887  -0.48442
 Alpha  occ. eigenvalues --   -0.48300  -0.47436  -0.47340  -0.46889  -0.46772
 Alpha  occ. eigenvalues --   -0.46674  -0.46485  -0.46329  -0.46178  -0.45325
 Alpha  occ. eigenvalues --   -0.45236  -0.44967  -0.44682  -0.44643  -0.44529
 Alpha  occ. eigenvalues --   -0.44346  -0.44197  -0.43958  -0.43597  -0.43446
 Alpha  occ. eigenvalues --   -0.43350  -0.43036  -0.42831  -0.42805  -0.42733
 Alpha  occ. eigenvalues --   -0.42494  -0.42451  -0.42407  -0.42110  -0.41960
 Alpha  occ. eigenvalues --   -0.41824  -0.41648  -0.41485  -0.41318  -0.41273
 Alpha  occ. eigenvalues --   -0.41113  -0.41066  -0.40892  -0.40709  -0.40545
 Alpha  occ. eigenvalues --   -0.40343  -0.40334  -0.40201  -0.40003  -0.39930
 Alpha  occ. eigenvalues --   -0.39551  -0.39337  -0.39045  -0.38986  -0.38894
 Alpha  occ. eigenvalues --   -0.38802  -0.38625  -0.38511  -0.38289  -0.38145
 Alpha  occ. eigenvalues --   -0.37700  -0.37591  -0.37535  -0.37400  -0.37110
 Alpha  occ. eigenvalues --   -0.36992  -0.36732  -0.36643  -0.36486  -0.36385
 Alpha  occ. eigenvalues --   -0.36327  -0.36146  -0.35992  -0.35952  -0.35767
 Alpha  occ. eigenvalues --   -0.35702  -0.35589  -0.35493  -0.35294  -0.35293
 Alpha  occ. eigenvalues --   -0.35221  -0.34959  -0.34854  -0.34507  -0.34403
 Alpha  occ. eigenvalues --   -0.34242  -0.33968  -0.33728  -0.33631  -0.33564
 Alpha  occ. eigenvalues --   -0.33393  -0.33207  -0.33140  -0.33048  -0.32992
 Alpha  occ. eigenvalues --   -0.32955  -0.32848  -0.32764  -0.32437  -0.32408
 Alpha  occ. eigenvalues --   -0.32246  -0.32223  -0.32157  -0.32111  -0.32035
 Alpha  occ. eigenvalues --   -0.32009  -0.31742  -0.31735  -0.31580  -0.31440
 Alpha  occ. eigenvalues --   -0.31410  -0.31347  -0.31138  -0.31001  -0.30443
 Alpha  occ. eigenvalues --   -0.30414  -0.30044  -0.29870  -0.29775  -0.29726
 Alpha  occ. eigenvalues --   -0.29145  -0.28953  -0.28182  -0.28088  -0.27834
 Alpha  occ. eigenvalues --   -0.27743  -0.27107  -0.26941  -0.25831  -0.25435
 Alpha  occ. eigenvalues --   -0.23696  -0.23458  -0.23219  -0.22830  -0.21394
 Alpha  occ. eigenvalues --   -0.21140  -0.20644  -0.20161  -0.16725  -0.16434
 Alpha virt. eigenvalues --   -0.05601  -0.05413  -0.01465  -0.01115  -0.00311
 Alpha virt. eigenvalues --    0.00503   0.00744   0.01232   0.03824   0.04241
 Alpha virt. eigenvalues --    0.05712   0.06504   0.06756   0.07086   0.07525
 Alpha virt. eigenvalues --    0.07664   0.07894   0.08607   0.08940   0.08989
 Alpha virt. eigenvalues --    0.09118   0.09318   0.09613   0.09698   0.09859
 Alpha virt. eigenvalues --    0.10146   0.10248   0.10511   0.10740   0.10765
 Alpha virt. eigenvalues --    0.10959   0.11161   0.11243   0.11486   0.11779
 Alpha virt. eigenvalues --    0.12214   0.12422   0.12600   0.12703   0.12883
 Alpha virt. eigenvalues --    0.12971   0.13088   0.13200   0.13402   0.13477
 Alpha virt. eigenvalues --    0.13711   0.14052   0.14126   0.14258   0.14317
 Alpha virt. eigenvalues --    0.14515   0.14720   0.14782   0.14947   0.15149
 Alpha virt. eigenvalues --    0.15334   0.15392   0.15648   0.15849   0.15914
 Alpha virt. eigenvalues --    0.16012   0.16162   0.16286   0.16318   0.16421
 Alpha virt. eigenvalues --    0.16476   0.16681   0.16798   0.17034   0.17170
 Alpha virt. eigenvalues --    0.17361   0.17443   0.17532   0.17605   0.17817
 Alpha virt. eigenvalues --    0.17957   0.18104   0.18181   0.18209   0.18347
 Alpha virt. eigenvalues --    0.18500   0.18645   0.18666   0.18750   0.18847
 Alpha virt. eigenvalues --    0.18988   0.19063   0.19225   0.19232   0.19416
 Alpha virt. eigenvalues --    0.19458   0.19501   0.19607   0.19645   0.19697
 Alpha virt. eigenvalues --    0.19785   0.19859   0.19982   0.20050   0.20153
 Alpha virt. eigenvalues --    0.20283   0.20445   0.20698   0.20804   0.20878
 Alpha virt. eigenvalues --    0.21021   0.21138   0.21304   0.21577   0.21682
 Alpha virt. eigenvalues --    0.21813   0.22035   0.22205   0.22324   0.22372
 Alpha virt. eigenvalues --    0.22565   0.22659   0.22760   0.22846   0.22922
 Alpha virt. eigenvalues --    0.23068   0.23135   0.23380   0.23455   0.23535
 Alpha virt. eigenvalues --    0.23816   0.23899   0.23979   0.24054   0.24343
 Alpha virt. eigenvalues --    0.24533   0.24774   0.24798   0.24931   0.25292
 Alpha virt. eigenvalues --    0.25622   0.25903   0.25937   0.26045   0.26185
 Alpha virt. eigenvalues --    0.26392   0.26548   0.26827   0.26884   0.27225
 Alpha virt. eigenvalues --    0.27364   0.27620   0.27802   0.28282   0.28386
 Alpha virt. eigenvalues --    0.28456   0.28647   0.28747   0.28909   0.28985
 Alpha virt. eigenvalues --    0.29183   0.29318   0.29361   0.29555   0.30181
 Alpha virt. eigenvalues --    0.30367   0.30609   0.30802   0.31097   0.31183
 Alpha virt. eigenvalues --    0.31553   0.31845   0.31936   0.32127   0.32284
 Alpha virt. eigenvalues --    0.32633   0.32936   0.33024   0.33269   0.33646
 Alpha virt. eigenvalues --    0.34104   0.34463   0.34782   0.35040   0.35572
 Alpha virt. eigenvalues --    0.35731   0.35900   0.36109   0.36990   0.37483
 Alpha virt. eigenvalues --    0.37537   0.37553   0.38309   0.38812   0.38932
 Alpha virt. eigenvalues --    0.40072   0.40442   0.40869   0.41251   0.41785
 Alpha virt. eigenvalues --    0.42351   0.42535   0.43124   0.43706   0.44300
 Alpha virt. eigenvalues --    0.45316   0.46117   0.46614   0.47321   0.47543
 Alpha virt. eigenvalues --    0.48010   0.48231   0.48515   0.48708   0.48912
 Alpha virt. eigenvalues --    0.49346   0.49497   0.49699   0.50103   0.50236
 Alpha virt. eigenvalues --    0.50520   0.50611   0.50841   0.50984   0.51067
 Alpha virt. eigenvalues --    0.51192   0.51297   0.51441   0.51591   0.51830
 Alpha virt. eigenvalues --    0.51931   0.52131   0.52341   0.52420   0.52661
 Alpha virt. eigenvalues --    0.53093   0.53301   0.53459   0.53620   0.53767
 Alpha virt. eigenvalues --    0.53993   0.54129   0.54356   0.54381   0.54803
 Alpha virt. eigenvalues --    0.54884   0.55374   0.55414   0.55624   0.55714
 Alpha virt. eigenvalues --    0.55748   0.55772   0.55881   0.55965   0.56056
 Alpha virt. eigenvalues --    0.56139   0.56354   0.56574   0.56759   0.57058
 Alpha virt. eigenvalues --    0.57303   0.57548   0.57651   0.57966   0.58091
 Alpha virt. eigenvalues --    0.58268   0.58367   0.58500   0.58649   0.58823
 Alpha virt. eigenvalues --    0.58940   0.59022   0.59251   0.59378   0.59543
 Alpha virt. eigenvalues --    0.59832   0.59951   0.60119   0.60167   0.60346
 Alpha virt. eigenvalues --    0.60499   0.60717   0.60978   0.61200   0.61597
 Alpha virt. eigenvalues --    0.61686   0.61807   0.62077   0.62311   0.62341
 Alpha virt. eigenvalues --    0.62620   0.62732   0.62822   0.62887   0.63014
 Alpha virt. eigenvalues --    0.63318   0.63432   0.63557   0.63840   0.63980
 Alpha virt. eigenvalues --    0.64199   0.64415   0.64495   0.64798   0.65006
 Alpha virt. eigenvalues --    0.65194   0.65448   0.65821   0.65945   0.66165
 Alpha virt. eigenvalues --    0.66400   0.66467   0.66543   0.66793   0.66854
 Alpha virt. eigenvalues --    0.67112   0.67279   0.67578   0.67856   0.68016
 Alpha virt. eigenvalues --    0.68172   0.68358   0.68829   0.68970   0.69029
 Alpha virt. eigenvalues --    0.69105   0.69281   0.69406   0.69769   0.69885
 Alpha virt. eigenvalues --    0.70391   0.70461   0.70755   0.70784   0.71181
 Alpha virt. eigenvalues --    0.71509   0.71697   0.71863   0.72015   0.72380
 Alpha virt. eigenvalues --    0.72445   0.72579   0.72662   0.73024   0.73217
 Alpha virt. eigenvalues --    0.73593   0.74066   0.74381   0.74515   0.74815
 Alpha virt. eigenvalues --    0.75081   0.75218   0.75433   0.75644   0.75851
 Alpha virt. eigenvalues --    0.75944   0.76256   0.76517   0.76894   0.77095
 Alpha virt. eigenvalues --    0.77371   0.77699   0.77908   0.78044   0.78266
 Alpha virt. eigenvalues --    0.78821   0.78991   0.79128   0.79529   0.79787
 Alpha virt. eigenvalues --    0.80042   0.80209   0.80279   0.80628   0.80926
 Alpha virt. eigenvalues --    0.81106   0.81303   0.81441   0.81583   0.81949
 Alpha virt. eigenvalues --    0.82100   0.82424   0.82740   0.83016   0.83220
 Alpha virt. eigenvalues --    0.83609   0.83758   0.83954   0.84307   0.84441
 Alpha virt. eigenvalues --    0.84545   0.84615   0.84809   0.84997   0.85128
 Alpha virt. eigenvalues --    0.85269   0.85288   0.85566   0.85594   0.85691
 Alpha virt. eigenvalues --    0.85819   0.85958   0.86057   0.86160   0.86309
 Alpha virt. eigenvalues --    0.86543   0.86770   0.86952   0.87049   0.87282
 Alpha virt. eigenvalues --    0.87459   0.87690   0.87826   0.87968   0.88001
 Alpha virt. eigenvalues --    0.88149   0.88400   0.88513   0.88633   0.88740
 Alpha virt. eigenvalues --    0.89055   0.89210   0.89394   0.89456   0.89521
 Alpha virt. eigenvalues --    0.89593   0.89703   0.89772   0.90057   0.90152
 Alpha virt. eigenvalues --    0.90270   0.90471   0.90529   0.90769   0.91026
 Alpha virt. eigenvalues --    0.91103   0.91414   0.91544   0.91635   0.91866
 Alpha virt. eigenvalues --    0.91917   0.92119   0.92271   0.92587   0.92635
 Alpha virt. eigenvalues --    0.92773   0.92955   0.93026   0.93142   0.93335
 Alpha virt. eigenvalues --    0.93492   0.93568   0.93705   0.93926   0.94001
 Alpha virt. eigenvalues --    0.94131   0.94229   0.94438   0.94545   0.94999
 Alpha virt. eigenvalues --    0.95062   0.95231   0.95403   0.95496   0.95540
 Alpha virt. eigenvalues --    0.95768   0.95857   0.95963   0.96312   0.96380
 Alpha virt. eigenvalues --    0.96584   0.96942   0.97040   0.97203   0.97283
 Alpha virt. eigenvalues --    0.97476   0.97525   0.97784   0.97873   0.97916
 Alpha virt. eigenvalues --    0.98089   0.98161   0.98304   0.98583   0.98844
 Alpha virt. eigenvalues --    0.98934   0.99128   0.99349   0.99576   0.99643
 Alpha virt. eigenvalues --    0.99876   1.00097   1.00258   1.00687   1.01015
 Alpha virt. eigenvalues --    1.01319   1.01597   1.01857   1.02009   1.02236
 Alpha virt. eigenvalues --    1.02316   1.02636   1.02660   1.02979   1.03293
 Alpha virt. eigenvalues --    1.03510   1.03919   1.04167   1.04259   1.04516
 Alpha virt. eigenvalues --    1.04639   1.04962   1.05274   1.05613   1.05871
 Alpha virt. eigenvalues --    1.05986   1.06329   1.06536   1.06788   1.06958
 Alpha virt. eigenvalues --    1.07323   1.07803   1.08155   1.08568   1.09218
 Alpha virt. eigenvalues --    1.09435   1.09600   1.09723   1.10296   1.10527
 Alpha virt. eigenvalues --    1.11263   1.11636   1.11895   1.12174   1.12790
 Alpha virt. eigenvalues --    1.12962   1.13125   1.13814   1.14148   1.14651
 Alpha virt. eigenvalues --    1.15119   1.15561   1.15745   1.16236   1.16614
 Alpha virt. eigenvalues --    1.16680   1.17324   1.18062   1.18081   1.18592
 Alpha virt. eigenvalues --    1.18749   1.19116   1.19585   1.19844   1.20156
 Alpha virt. eigenvalues --    1.20528   1.21130   1.21452   1.21885   1.22397
 Alpha virt. eigenvalues --    1.22579   1.22806   1.23220   1.23815   1.24331
 Alpha virt. eigenvalues --    1.24506   1.24689   1.25247   1.25496   1.25948
 Alpha virt. eigenvalues --    1.26654   1.26799   1.27184   1.27394   1.27782
 Alpha virt. eigenvalues --    1.28142   1.28495   1.28865   1.28976   1.29176
 Alpha virt. eigenvalues --    1.29419   1.29732   1.30290   1.30881   1.31373
 Alpha virt. eigenvalues --    1.32290   1.32655   1.33347   1.33489   1.33928
 Alpha virt. eigenvalues --    1.34208   1.34605   1.34977   1.35307   1.35975
 Alpha virt. eigenvalues --    1.36074   1.36617   1.37004   1.37693   1.38160
 Alpha virt. eigenvalues --    1.38520   1.38829   1.39110   1.39495   1.39936
 Alpha virt. eigenvalues --    1.40402   1.40641   1.41244   1.41656   1.41955
 Alpha virt. eigenvalues --    1.42196   1.42536   1.42899   1.43632   1.44090
 Alpha virt. eigenvalues --    1.44864   1.45272   1.45465   1.45806   1.45967
 Alpha virt. eigenvalues --    1.46815   1.47508   1.47768   1.48354   1.48522
 Alpha virt. eigenvalues --    1.48623   1.48955   1.49324   1.49350   1.49730
 Alpha virt. eigenvalues --    1.49855   1.50196   1.50362   1.50601   1.50688
 Alpha virt. eigenvalues --    1.51156   1.51378   1.51679   1.52211   1.52534
 Alpha virt. eigenvalues --    1.53068   1.53490   1.54055   1.54307   1.54667
 Alpha virt. eigenvalues --    1.55097   1.55839   1.56247   1.56676   1.56812
 Alpha virt. eigenvalues --    1.57172   1.57573   1.57903   1.58249   1.59165
 Alpha virt. eigenvalues --    1.59313   1.59836   1.60262   1.60404   1.60869
 Alpha virt. eigenvalues --    1.61496   1.62132   1.62188   1.62429   1.63151
 Alpha virt. eigenvalues --    1.63610   1.63747   1.64212   1.64713   1.64847
 Alpha virt. eigenvalues --    1.65041   1.65412   1.65709   1.66024   1.66411
 Alpha virt. eigenvalues --    1.66924   1.67259   1.67646   1.68043   1.68110
 Alpha virt. eigenvalues --    1.69094   1.69408   1.69631   1.70165   1.70622
 Alpha virt. eigenvalues --    1.70877   1.71170   1.71342   1.71541   1.71926
 Alpha virt. eigenvalues --    1.72387   1.73149   1.73668   1.73778   1.74104
 Alpha virt. eigenvalues --    1.74788   1.75225   1.75441   1.75965   1.76757
 Alpha virt. eigenvalues --    1.76844   1.76910   1.77597   1.77939   1.78011
 Alpha virt. eigenvalues --    1.78257   1.78534   1.78922   1.79024   1.79568
 Alpha virt. eigenvalues --    1.79868   1.80124   1.80362   1.80449   1.80703
 Alpha virt. eigenvalues --    1.80982   1.81228   1.81685   1.82221   1.82381
 Alpha virt. eigenvalues --    1.82517   1.82681   1.83074   1.83711   1.83771
 Alpha virt. eigenvalues --    1.84015   1.84571   1.84644   1.85144   1.85254
 Alpha virt. eigenvalues --    1.85632   1.85893   1.86042   1.86839   1.87011
 Alpha virt. eigenvalues --    1.87715   1.87946   1.88310   1.88499   1.88969
 Alpha virt. eigenvalues --    1.89043   1.89092   1.89324   1.89755   1.89984
 Alpha virt. eigenvalues --    1.90306   1.90858   1.91106   1.91397   1.91488
 Alpha virt. eigenvalues --    1.91790   1.91845   1.92123   1.92499   1.92691
 Alpha virt. eigenvalues --    1.92771   1.92867   1.93099   1.93291   1.93407
 Alpha virt. eigenvalues --    1.93881   1.93957   1.94143   1.94468   1.94761
 Alpha virt. eigenvalues --    1.94802   1.94878   1.95069   1.95218   1.95512
 Alpha virt. eigenvalues --    1.95913   1.96043   1.96215   1.96286   1.96560
 Alpha virt. eigenvalues --    1.96814   1.96987   1.97346   1.97494   1.97771
 Alpha virt. eigenvalues --    1.98118   1.98427   1.98614   1.98694   1.98986
 Alpha virt. eigenvalues --    1.99333   1.99380   1.99999   2.00181   2.00252
 Alpha virt. eigenvalues --    2.00676   2.00734   2.00883   2.01132   2.01334
 Alpha virt. eigenvalues --    2.01558   2.01655   2.01873   2.02105   2.02356
 Alpha virt. eigenvalues --    2.02419   2.02739   2.02841   2.02931   2.03235
 Alpha virt. eigenvalues --    2.03399   2.03544   2.03837   2.04079   2.04496
 Alpha virt. eigenvalues --    2.04924   2.05316   2.05477   2.05911   2.05938
 Alpha virt. eigenvalues --    2.06287   2.06665   2.06917   2.07022   2.07119
 Alpha virt. eigenvalues --    2.07410   2.07462   2.07610   2.08086   2.08491
 Alpha virt. eigenvalues --    2.08674   2.08883   2.09128   2.09398   2.09865
 Alpha virt. eigenvalues --    2.10353   2.10390   2.10887   2.11497   2.11896
 Alpha virt. eigenvalues --    2.12280   2.12589   2.12847   2.13892   2.14095
 Alpha virt. eigenvalues --    2.14597   2.15144   2.15692   2.15819   2.16030
 Alpha virt. eigenvalues --    2.17082   2.17447   2.17920   2.17948   2.18602
 Alpha virt. eigenvalues --    2.19075   2.19602   2.19724   2.20058   2.20300
 Alpha virt. eigenvalues --    2.20470   2.20805   2.21654   2.21973   2.22426
 Alpha virt. eigenvalues --    2.22721   2.22809   2.23073   2.23409   2.23614
 Alpha virt. eigenvalues --    2.24154   2.24706   2.24957   2.25590   2.25924
 Alpha virt. eigenvalues --    2.26275   2.26399   2.26777   2.26868   2.27016
 Alpha virt. eigenvalues --    2.27273   2.27675   2.27762   2.28204   2.28332
 Alpha virt. eigenvalues --    2.28632   2.28867   2.28899   2.28980   2.29261
 Alpha virt. eigenvalues --    2.29372   2.29625   2.30364   2.30541   2.30759
 Alpha virt. eigenvalues --    2.31064   2.31470   2.31572   2.31680   2.31956
 Alpha virt. eigenvalues --    2.32151   2.32371   2.32561   2.32675   2.33084
 Alpha virt. eigenvalues --    2.33381   2.33801   2.34307   2.34526   2.34761
 Alpha virt. eigenvalues --    2.34901   2.35331   2.35604   2.35813   2.36077
 Alpha virt. eigenvalues --    2.36532   2.36568   2.36912   2.37103   2.37452
 Alpha virt. eigenvalues --    2.37590   2.37764   2.38447   2.38715   2.38816
 Alpha virt. eigenvalues --    2.39016   2.39500   2.39773   2.39813   2.40387
 Alpha virt. eigenvalues --    2.40626   2.41074   2.41240   2.42241   2.42377
 Alpha virt. eigenvalues --    2.42484   2.42786   2.43322   2.43908   2.44079
 Alpha virt. eigenvalues --    2.44217   2.44453   2.45119   2.45449   2.45945
 Alpha virt. eigenvalues --    2.46192   2.46379   2.46521   2.47499   2.47883
 Alpha virt. eigenvalues --    2.48213   2.49015   2.49204   2.49449   2.49780
 Alpha virt. eigenvalues --    2.49888   2.50608   2.50744   2.51261   2.51631
 Alpha virt. eigenvalues --    2.51734   2.52025   2.52252   2.53661   2.53758
 Alpha virt. eigenvalues --    2.54103   2.55693   2.55862   2.56425   2.57058
 Alpha virt. eigenvalues --    2.57628   2.57959   2.58059   2.58331   2.58728
 Alpha virt. eigenvalues --    2.59032   2.59598   2.59777   2.60241   2.60257
 Alpha virt. eigenvalues --    2.60467   2.60660   2.61046   2.61379   2.61673
 Alpha virt. eigenvalues --    2.62266   2.62342   2.62646   2.63784   2.63794
 Alpha virt. eigenvalues --    2.64190   2.64491   2.65831   2.66240   2.67567
 Alpha virt. eigenvalues --    2.67731   2.68183   2.68266   2.69012   2.69091
 Alpha virt. eigenvalues --    2.69965   2.70183   2.71785   2.72010   2.72872
 Alpha virt. eigenvalues --    2.73752   2.74513   2.74843   2.75582   2.75909
 Alpha virt. eigenvalues --    2.76098   2.76221   2.76437   2.76589   2.76933
 Alpha virt. eigenvalues --    2.77385   2.78857   2.79505   2.79947   2.80559
 Alpha virt. eigenvalues --    2.80627   2.81236   2.81541   2.81858   2.82298
 Alpha virt. eigenvalues --    2.82394   2.82798   2.83244   2.84671   2.85077
 Alpha virt. eigenvalues --    2.85386   2.85817   2.86365   2.87593   2.88520
 Alpha virt. eigenvalues --    2.88694   2.89114   2.89416   2.89661   2.90156
 Alpha virt. eigenvalues --    2.92778   2.92945   2.93090   2.93218   2.94641
 Alpha virt. eigenvalues --    2.94870   2.95244   2.95479   2.96550   2.97890
 Alpha virt. eigenvalues --    2.99995   3.00846   3.02785   3.03153   3.03994
 Alpha virt. eigenvalues --    3.04853   3.09085   3.09280   3.10355   3.11286
 Alpha virt. eigenvalues --    3.12728   3.14116   3.18626   3.18810   3.22852
 Alpha virt. eigenvalues --    3.23223   3.27151   3.28383   3.33048   3.33292
 Alpha virt. eigenvalues --    3.41236   3.41492   3.60650   3.61054   3.62288
 Alpha virt. eigenvalues --    3.62491   3.97095   3.98902   4.09636   4.10821
 Alpha virt. eigenvalues --    4.12620   4.13026   4.13257   4.13606   4.14205
 Alpha virt. eigenvalues --    4.14769   4.15749   4.16139   4.16409   4.16825
 Alpha virt. eigenvalues --    4.16993   4.17313   4.18101   4.18838   4.19656
 Alpha virt. eigenvalues --    4.20365   4.21066   4.21452   4.21819   4.22014
 Alpha virt. eigenvalues --    4.22211   4.22855   4.23604   4.24709   4.24873
 Alpha virt. eigenvalues --    4.25980   4.26192   4.27121   4.28028   4.28620
 Alpha virt. eigenvalues --    4.29736   4.30495   4.31208   4.32186   4.34576
 Alpha virt. eigenvalues --    4.34919   4.35332   4.35763   4.36402   4.37350
 Alpha virt. eigenvalues --    4.39253   4.39636   4.39992   4.40539   4.41377
 Alpha virt. eigenvalues --    4.42274   4.42644   4.43147   4.44006   4.44736
 Alpha virt. eigenvalues --    4.46305   4.47048   4.47762   4.47918   4.49164
 Alpha virt. eigenvalues --    4.50250   4.51061   4.52103   4.52329   4.52455
 Alpha virt. eigenvalues --    4.53577   4.55032   4.57418   4.58332   4.60428
 Alpha virt. eigenvalues --    4.61446   4.62431   4.62948   4.65630   4.66703
 Alpha virt. eigenvalues --    4.67765   4.68647   4.69954   4.70505   4.75779
 Alpha virt. eigenvalues --    4.78102   4.82619   4.82952   5.03843   5.04531
          Condensed to atoms (all electrons):
 Mulliken charges:
               1
     1  C   -0.248690
     2  C    0.120983
     3  C    0.002999
     4  C    0.177781
     5  C   -0.270528
     6  C   -0.120099
     7  C   -0.300990
     8  C    0.116303
     9  C    0.068911
    10  C    0.050685
    11  C   -0.017227
    12  C    0.070534
    13  C    0.071073
    14  C   -0.464030
    15  C    0.024994
    16  C    0.021996
    17  C    0.077351
    18  C    0.012584
    19  C   -0.001815
    20  H    0.128839
    21  H    0.130599
    22  H    0.158743
    23  S    0.101292
    24  C   -0.414658
    25  C   -0.445226
    26  C   -0.142217
    27  C   -0.277092
    28  C   -0.283466
    29  C   -0.154829
    30  C   -0.279069
    31  C   -0.253259
    32  C   -0.248448
    33  C   -0.441135
    34  C   -0.299800
    35  C   -0.179353
    36  C   -0.145069
    37  C   -0.282823
    38  C   -0.261151
    39  C   -0.365142
    40  C   -0.289049
    41  C   -0.355033
    42  C   -0.259087
    43  C   -0.245133
    44  C   -0.244892
    45  C   -0.440891
    46  H    0.190859
    47  H    0.200323
    48  H    0.172377
    49  H    0.174216
    50  H    0.163488
    51  H    0.156533
    52  H    0.142973
    53  H    0.143014
    54  H    0.131669
    55  H    0.128789
    56  H    0.142226
    57  H    0.122589
    58  H    0.133727
    59  H    0.148018
    60  H    0.129694
    61  H    0.133704
    62  H    0.124910
    63  H    0.132129
    64  H    0.129658
    65  H    0.140058
    66  H    0.140426
    67  H    0.140841
    68  H    0.124730
    69  H    0.148669
    70  H    0.145202
    71  H    0.142486
    72  H    0.130792
    73  H    0.133144
    74  H    0.139506
    75  H    0.128815
    76  H    0.156386
    77  H    0.152809
    78  H    0.127373
    79  H    0.152953
    80  H    0.144011
    81  H    0.142788
    82  H    0.136272
    83  H    0.141461
    84  H    0.126642
    85  H    0.125140
    86  H    0.129532
    87  H    0.131865
    88  H    0.140810
    89  H    0.140603
    90  H    0.139773
    91  C   -0.255915
    92  C    0.111715
    93  C   -0.005682
    94  C    0.175464
    95  C   -0.256219
    96  C   -0.120251
    97  C   -0.302365
    98  C    0.119842
    99  C    0.067453
   100  C    0.051799
   101  C   -0.020511
   102  C    0.071871
   103  C    0.073645
   104  C   -0.466139
   105  C    0.034025
   106  C    0.028785
   107  C    0.076671
   108  C    0.022319
   109  C   -0.006278
   110  H    0.128816
   111  H    0.129642
   112  H    0.153723
   113  S    0.096636
   114  C   -0.414014
   115  C   -0.442322
   116  C   -0.137967
   117  C   -0.277902
   118  C   -0.278690
   119  C   -0.156004
   120  C   -0.279079
   121  C   -0.253498
   122  C   -0.247490
   123  C   -0.441631
   124  C   -0.297687
   125  C   -0.186900
   126  C   -0.142825
   127  C   -0.283098
   128  C   -0.260360
   129  C   -0.361375
   130  C   -0.295910
   131  C   -0.367886
   132  C   -0.260974
   133  C   -0.243373
   134  C   -0.246065
   135  C   -0.441353
   136  H    0.188360
   137  H    0.199551
   138  H    0.170885
   139  H    0.175807
   140  H    0.161807
   141  H    0.155258
   142  H    0.142282
   143  H    0.138861
   144  H    0.130897
   145  H    0.128424
   146  H    0.140439
   147  H    0.121548
   148  H    0.132487
   149  H    0.145839
   150  H    0.129819
   151  H    0.133270
   152  H    0.125479
   153  H    0.131587
   154  H    0.129783
   155  H    0.140292
   156  H    0.140474
   157  H    0.140790
   158  H    0.122168
   159  H    0.151583
   160  H    0.147795
   161  H    0.142418
   162  H    0.130579
   163  H    0.131754
   164  H    0.138857
   165  H    0.127711
   166  H    0.152978
   167  H    0.154453
   168  H    0.126092
   169  H    0.159938
   170  H    0.145121
   171  H    0.148742
   172  H    0.139141
   173  H    0.139657
   174  H    0.127007
   175  H    0.124994
   176  H    0.129203
   177  H    0.131538
   178  H    0.140934
   179  H    0.141081
   180  H    0.140224
 Sum of Mulliken charges =  -0.00000
 Mulliken charges with hydrogens summed into heavy atoms:
               1
     1  C   -0.119851
     2  C    0.120983
     3  C    0.002999
     4  C    0.177781
     5  C   -0.111784
     6  C    0.010500
     7  C   -0.300990
     8  C    0.116303
     9  C    0.068911
    10  C    0.050685
    11  C   -0.017227
    12  C    0.070534
    13  C    0.071073
    14  C   -0.072848
    15  C    0.024994
    16  C    0.021996
    17  C    0.077351
    18  C    0.012584
    19  C   -0.001815
    23  S    0.101292
    24  C   -0.068065
    25  C    0.017768
    26  C    0.000796
    27  C   -0.016635
    28  C   -0.018650
    29  C   -0.021103
    30  C   -0.001357
    31  C    0.005354
    32  C    0.013339
    33  C   -0.019810
    34  C   -0.026401
    35  C   -0.034151
    36  C   -0.002583
    37  C   -0.018887
    38  C    0.007170
    39  C   -0.055946
    40  C   -0.008724
    41  C   -0.068234
    42  C    0.018646
    43  C    0.006649
    44  C    0.016504
    45  C   -0.019704
    91  C   -0.127098
    92  C    0.111715
    93  C   -0.005682
    94  C    0.175464
    95  C   -0.102496
    96  C    0.009391
    97  C   -0.302365
    98  C    0.119842
    99  C    0.067453
   100  C    0.051799
   101  C   -0.020511
   102  C    0.071871
   103  C    0.073645
   104  C   -0.078229
   105  C    0.034025
   106  C    0.028785
   107  C    0.076671
   108  C    0.022319
   109  C   -0.006278
   113  S    0.096636
   114  C   -0.067321
   115  C    0.017025
   116  C    0.000894
   117  C   -0.018582
   118  C   -0.016703
   119  C   -0.023518
   120  C   -0.003420
   121  C    0.005251
   122  C    0.013879
   123  C   -0.020076
   124  C   -0.023937
   125  C   -0.039105
   126  C   -0.000407
   127  C   -0.020764
   128  C    0.006209
   129  C   -0.053944
   130  C   -0.009880
   131  C   -0.074022
   132  C    0.017823
   133  C    0.008629
   134  C    0.014677
   135  C   -0.019115
 Electronic spatial extent (au):  <R**2>=          74067.8128
 Charge=             -0.0000 electrons
 Dipole moment (field-independent basis, Debye):
    X=             -0.0694    Y=             -2.5827    Z=             -2.4887  Tot=              3.5873
 Quadrupole moment (field-independent basis, Debye-Ang):
   XX=           -496.7015   YY=           -502.9042   ZZ=           -502.4741
   XY=             -1.0012   XZ=              0.8615   YZ=              4.3979
 Traceless Quadrupole moment (field-independent basis, Debye-Ang):
   XX=              3.9917   YY=             -2.2109   ZZ=             -1.7808
   XY=             -1.0012   XZ=              0.8615   YZ=              4.3979
 Octapole moment (field-independent basis, Debye-Ang**2):
  XXX=              2.0900  YYY=             11.3489  ZZZ=             12.4649  XYY=              1.1807
  XXY=              4.6098  XXZ=              7.2870  XZZ=             -1.1680  YZZ=            -14.0490
  YYZ=             -6.7261  XYZ=              1.6257
 Hexadecapole moment (field-independent basis, Debye-Ang**3):
 XXXX=         -53424.0361 YYYY=         -25940.0028 ZZZZ=         -22397.7389 XXXY=            -81.3772
 XXXZ=             55.7222 YYYX=            -38.3174 YYYZ=            255.7679 ZZZX=            104.5822
 ZZZY=             34.6345 XXYY=         -13324.0867 XXZZ=         -12649.5335 YYZZ=          -8293.1719
 XXYZ=            121.7865 YYXZ=            -92.7745 ZZXY=             25.8500
 N-N= 1.718647127465D+04 E-N=-4.363405666005D+04  KE= 3.946267859669D+03
 1\1\ WCSS.PL-BEM-NODE01\SP\RB3LYP\6-311G(d,p)\C82H96S2\USER\19-Dec-2022\0
 \\# b3lyp/6-311g(d,p) scrf=(solvent=cyclohexane) em=gd3bj\\structure\\0,1
 \C,0,-2.10592,3.75887,1.37219\C,0,-1.60939,2.45225,1.65816\C,0,-0.2118
 77,2.24566,1.63671\C,0,0.659992,3.29197,1.26355\C,0,0.106272,4.58203,1
 .02992\C,0,-1.2546,4.80285,1.07649\C,0,2.03624,3.00374,1.08155\C,0,2.5
 4388,1.74455,1.31007\C,0,1.66772,0.720162,1.67168\C,0,0.294602,0.97684
 1,1.8377\C,0,2.14438,-0.603625,1.83175\C,0,3.59718,-0.90376,1.53491\C,
 0,4.47681,0.0685015,1.17786\C,0,4.03719,1.51576,1.11742\C,0,-2.49091,1
 .38189,1.89862\C,0,-1.97837,0.126042,2.14472\C,0,-0.590543,-0.0938282,
 2.05152\C,0,1.27779,-1.62753,2.17763\C,0,-0.08789,-1.40771,2.12818\H,0
 ,-3.1833,3.97329,1.3661\H,0,-1.66286,5.80538,0.868458\H,0,0.758435,5.4
 3093,0.779483\S,0,3.13754,4.30396,0.511941\C,0,2.65701,4.46181,-1.2333
 9\C,0,2.96302,3.18138,-2.01173\C,0,5.95979,-0.17886,0.88315\C,0,6.2567
 9,-1.67143,0.681478\C,0,5.51075,-2.52796,1.70543\C,0,3.9995,-2.37751,1
 .53959\C,0,6.48565,0.648853,-0.30936\C,0,7.973,0.423591,-0.631056\C,0,
 8.50736,1.32855,-1.74778\C,0,9.98464,1.06424,-2.05257\C,0,3.28419,-3.1
 1759,2.64933\C,0,1.75802,-3.01293,2.58907\C,0,-1.05777,-2.59205,2.0693
 1\C,0,-0.447412,-3.98227,2.31334\C,0,0.988327,-4.06645,1.78525\C,0,-2.
 95029,-1.01289,2.458\C,0,-2.22667,-2.25294,2.98803\C,0,-3.99489,1.5835
 1,1.82239\C,0,-4.41168,1.44505,0.351719\C,0,-5.92079,1.51544,0.104044\
 C,0,-6.24923,1.33787,-1.38264\C,0,-7.74867,1.34048,-1.66979\H,0,4.3079
 3,1.90329,0.12136\H,0,4.6164,2.09498,1.85647\H,0,3.21623,5.30828,-1.66
 384\H,0,1.58606,4.70959,-1.30315\H,0,2.40759,2.3215,-1.60609\H,0,4.037
 95,2.94543,-1.96858\H,0,2.68751,3.28116,-3.0733\H,0,6.51277,0.14963,1.
 78411\H,0,7.34337,-1.85551,0.750898\H,0,5.94671,-1.97938,-0.33301\H,0,
 5.80911,-2.21811,2.72168\H,0,5.79509,-3.59013,1.60365\H,0,3.70805,-2.8
 147,0.566186\H,0,6.36608,1.72736,-0.105321\H,0,5.88315,0.430876,-1.209
 04\H,0,8.14329,-0.627173,-0.923989\H,0,8.56627,0.594102,0.285247\H,0,8
 .37737,2.38868,-1.46715\H,0,7.9128,1.16975,-2.66479\H,0,10.1387,0.0154
 364,-2.35487\H,0,10.6056,1.25664,-1.16283\H,0,10.3522,1.70827,-2.86764
 \H,0,3.60082,-4.17497,2.67354\H,0,3.61071,-2.68109,3.60933\H,0,1.43658
 ,-3.16956,3.63832\H,0,-1.45026,-2.61779,1.03237\H,0,-1.09931,-4.75574,
 1.8718\H,0,-0.423287,-4.19484,3.39756\H,0,1.03608,-3.87534,0.70047\H,0
 ,1.39746,-5.07669,1.95504\H,0,-3.69105,-0.709489,3.21521\H,0,-3.51054,
 -1.28544,1.54522\H,0,-2.93207,-3.09899,3.05123\H,0,-1.86469,-2.07272,4
 .01381\H,0,-4.30774,2.55944,2.22649\H,0,-4.56147,0.860051,2.42527\H,0,
 -4.04546,0.477005,-0.0376059\H,0,-3.91982,2.2271,-0.253917\H,0,-6.3167
 9,2.48283,0.460983\H,0,-6.42849,0.726011,0.687242\H,0,-5.80797,0.38829
 7,-1.73574\H,0,-5.76659,2.14424,-1.96398\H,0,-7.95004,1.22211,-2.7468\
 H,0,-8.20756,2.28727,-1.34131\H,0,-8.25114,0.515714,-1.13841\C,0,6.506
 85,2.08331,4.30425\C,0,5.29705,1.45885,4.73073\C,0,4.1063,2.21856,4.69
 448\C,0,4.11204,3.55386,4.23105\C,0,5.34218,4.09752,3.76577\C,0,6.5166
 8,3.37507,3.81893\C,0,2.90187,4.29431,4.25934\C,0,1.72573,3.7271,4.697
 15\C,0,1.73941,2.40862,5.15472\C,0,2.93267,1.66568,5.16419\C,0,0.54992
 4,1.80049,5.62273\C,0,-0.717857,2.62118,5.69955\C,0,-0.761283,3.91682,
 5.29496\C,0,0.458201,4.57136,4.67984\C,0,5.29201,0.133523,5.20599\C,0,
 4.1309,-0.389998,5.7377\C,0,2.95418,0.385909,5.74532\C,0,0.560686,0.49
 1547,6.0744\C,0,1.77223,-0.139876,6.30261\H,0,7.46928,1.55552,4.34755\
 H,0,7.46233,3.82713,3.47742\H,0,5.3814,5.12115,3.36631\S,0,2.88602,6.0
 0807,3.70284\C,0,3.73562,6.86011,5.06545\C,0,2.8578,6.91316,6.31573\C,
 0,-2.01126,4.79838,5.35855\C,0,-3.1221,4.16192,6.20594\C,0,-3.2196,2.6
 5495,5.9571\C,0,-1.92193,1.95863,6.3676\C,0,-1.685,6.22239,5.85734\C,0
 ,-2.89172,7.15449,6.06031\C,0,-2.46922,8.5758,6.45389\C,0,-3.65594,9.4
 9627,6.74966\C,0,-1.98195,0.488115,6.01111\C,0,-0.711233,-0.292273,6.3
 6001\C,0,1.83893,-1.38438,7.19211\C,0,0.488389,-1.98568,7.61746\C,0,-0
 .600234,-0.917225,7.75395\C,0,4.1546,-1.80241,6.32992\C,0,2.75038,-2.3
 8778,6.49755\C,0,6.56014,-0.707658,5.17541\C,0,7.32982,-0.601597,6.498
 97\C,0,8.48932,-1.60228,6.56629\C,0,9.21933,-1.61294,7.91253\C,0,10.33
 41,-2.65997,7.96293\H,0,0.665268,5.49661,5.24329\H,0,0.210037,4.87352,
 3.64884\H,0,3.9729,7.88401,4.73344\H,0,4.69106,6.35688,5.28167\H,0,2.5
 9383,5.90279,6.66358\H,0,1.92322,7.45978,6.11392\H,0,3.36928,7.42291,7
 .14611\H,0,-2.39064,4.88011,4.32218\H,0,-4.08673,4.65382,5.98918\H,0,-
 2.91639,4.32983,7.27832\H,0,-3.42287,2.47454,4.88666\H,0,-4.06932,2.22
 547,6.51732\H,0,-1.80352,2.0594,7.46265\H,0,-1.01087,6.72487,5.14109\H
 ,0,-1.13382,6.15712,6.81274\H,0,-3.55532,6.75119,6.84578\H,0,-3.48953,
 7.19399,5.13228\H,0,-1.85837,9.01292,5.64425\H,0,-1.82043,8.52392,7.34
 645\H,0,-4.26331,9.09599,7.57768\H,0,-4.30864,9.59603,5.86741\H,0,-3.3
 2018,10.5059,7.03756\H,0,-2.86711,0.0162209,6.47207\H,0,-2.13068,0.407
 701,4.92057\H,0,-0.724356,-1.15173,5.65941\H,0,2.33997,-1.06901,8.1296
 8\H,0,0.619105,-2.56568,8.54689\H,0,0.150434,-2.71406,6.8579\H,0,-0.34
 7857,-0.170663,8.52533\H,0,-1.55268,-1.38528,8.05316\H,0,4.72969,-2.50
 369,5.70834\H,0,4.64341,-1.77627,7.32074\H,0,2.80297,-3.32753,7.07512\
 H,0,2.32972,-2.64891,5.51388\H,0,7.21971,-0.424577,4.33972\H,0,6.3428,
 -1.76566,4.967\H,0,6.64928,-0.793909,7.34668\H,0,7.71378,0.424442,6.63
 38\H,0,9.21207,-1.38552,5.75951\H,0,8.09551,-2.61652,6.37123\H,0,8.493
 82,-1.81447,8.72063\H,0,9.64278,-0.613276,8.11273\H,0,10.8504,-2.65394
 ,8.93647\H,0,11.0869,-2.46738,7.1818\H,0,9.9301,-3.67325,7.80452\\Vers
 ion=ES64L-G09RevE.01\State=1-A\HF=-3979.6000633\RMSD=6.313e-09\Dipole=
 -0.4860872,-1.2891196,0.3063203\Quadrupole=2.940698,1.3308918,-4.27158
 98,-0.2851539,0.4343596,-1.9193385\PG=C01 [X(C82H96S2)]\\@


 THERE ARE PEOPLE SO ADDICTED TO EXAGERATING THEY
 CAN'T TELL THE TRUTH WITHOUT LYING. -- FORTUNE COOKIE
 Job cpu time:       0 days  3 hours 32 minutes 54.2 seconds.
 File lengths (MBytes):  RWF=   2703 Int=      0 D2E=      0 Chk=    110 Scr=      1
 Normal termination of Gaussian 09 at Mon Dec 19 10:13:51 2022.
