 Entering Gaussian System, Link 0=g09
 Input=HHH.gjf
 Output=HHH.log
 Initial command:
 /home/user/g09/l1.exe "/home/user/xiaoming2/Gau-64678.inp" -scrdir="/home/user/xiaoming2/"
 Entering Link 1 = /home/user/g09/l1.exe PID=     64679.
  
 Copyright (c) 1988,1990,1992,1993,1995,1998,2003,2009,2015,
            Gaussian, Inc.  All Rights Reserved.
  
 This is part of the Gaussian(R) 09 program.  It is based on
 the Gaussian(R) 03 system (copyright 2003, Gaussian, Inc.),
 the Gaussian(R) 98 system (copyright 1998, Gaussian, Inc.),
 the Gaussian(R) 94 system (copyright 1995, Gaussian, Inc.),
 the Gaussian 92(TM) system (copyright 1992, Gaussian, Inc.),
 the Gaussian 90(TM) system (copyright 1990, Gaussian, Inc.),
 the Gaussian 88(TM) system (copyright 1988, Gaussian, Inc.),
 the Gaussian 86(TM) system (copyright 1986, Carnegie Mellon
 University), and the Gaussian 82(TM) system (copyright 1983,
 Carnegie Mellon University). Gaussian is a federally registered
 trademark of Gaussian, Inc.
  
 This software contains proprietary and confidential information,
 including trade secrets, belonging to Gaussian, Inc.
  
 This software is provided under written license and may be
 used, copied, transmitted, or stored only in accord with that
 written license.
  
 The following legend is applicable only to US Government
 contracts under FAR:
  
                    RESTRICTED RIGHTS LEGEND
  
 Use, reproduction and disclosure by the US Government is
 subject to restrictions as set forth in subparagraphs (a)
 and (c) of the Commercial Computer Software - Restricted
 Rights clause in FAR 52.227-19.
  
 Gaussian, Inc.
 340 Quinnipiac St., Bldg. 40, Wallingford CT 06492
  
  
 ---------------------------------------------------------------
 Warning -- This program may not be used in any manner that
 competes with the business of Gaussian, Inc. or will provide
 assistance to any competitor of Gaussian, Inc.  The licensee
 of this program is prohibited from giving any competitor of
 Gaussian, Inc. access to this program.  By using this program,
 the user acknowledges that Gaussian, Inc. is engaged in the
 business of creating and licensing software in the field of
 computational chemistry and represents and warrants to the
 licensee that it is not a competitor of Gaussian, Inc. and that
 it will not use this program in any manner prohibited above.
 ---------------------------------------------------------------
  

 Cite this work as:
 Gaussian 09, Revision E.01,
 M. J. Frisch, G. W. Trucks, H. B. Schlegel, G. E. Scuseria, 
 M. A. Robb, J. R. Cheeseman, G. Scalmani, V. Barone, B. Mennucci, 
 G. A. Petersson, H. Nakatsuji, M. Caricato, X. Li, H. P. Hratchian, 
 A. F. Izmaylov, J. Bloino, G. Zheng, J. L. Sonnenberg, M. Hada, 
 M. Ehara, K. Toyota, R. Fukuda, J. Hasegawa, M. Ishida, T. Nakajima, 
 Y. Honda, O. Kitao, H. Nakai, T. Vreven, J. A. Montgomery, Jr., 
 J. E. Peralta, F. Ogliaro, M. Bearpark, J. J. Heyd, E. Brothers, 
 K. N. Kudin, V. N. Staroverov, T. Keith, R. Kobayashi, J. Normand, 
 K. Raghavachari, A. Rendell, J. C. Burant, S. S. Iyengar, J. Tomasi, 
 M. Cossi, N. Rega, J. M. Millam, M. Klene, J. E. Knox, J. B. Cross, 
 V. Bakken, C. Adamo, J. Jaramillo, R. Gomperts, R. E. Stratmann, 
 O. Yazyev, A. J. Austin, R. Cammi, C. Pomelli, J. W. Ochterski, 
 R. L. Martin, K. Morokuma, V. G. Zakrzewski, G. A. Voth, 
 P. Salvador, J. J. Dannenberg, S. Dapprich, A. D. Daniels, 
 O. Farkas, J. B. Foresman, J. V. Ortiz, J. Cioslowski, 
 and D. J. Fox, Gaussian, Inc., Wallingford CT, 2013.
 
 ******************************************
 Gaussian 09:  ES64L-G09RevE.01 30-Nov-2015
                19-Dec-2022 
 ******************************************
 %chk=HHH.chk
 %mem=20GB
 %nprocshared=10
 Will use up to   10 processors via shared memory.
 ----------------------------------------------------
 # b3lyp/6-311g(d,p) scrf=(solvent=cyclohexane) em=gd3bj
 ----------------------------------------------------
 1/38=1/1;
 2/12=2,17=6,18=5,40=1/2;
 3/5=1,6=6,7=1,11=2,16=1,25=1,30=1,70=2201,72=17,74=-5,124=41/1,2,3;
 4//1;
 5/5=2,38=5,53=17/2;
 6/7=2,8=2,9=2,10=2,28=1/1;
 99/5=1,9=1/99;
 ----------
 "Sketch 1"
 ----------
 Symbolic Z-matrix:
 Charge =  0 Multiplicity = 1
 C                    -2.88281   1.68505  -1.60059 
 C                    -2.29643   0.2869   -1.4243 
 C                    -0.9418    0.06323  -1.70894 
 C                    -0.14772   1.13026  -2.13523 
 C                    -0.55952   2.44578  -2.28085 
 N                    -1.86824   2.71393  -1.95318 
 C                     0.25419   3.47226  -2.69794 
 C                     1.631     3.22189  -3.02437 
 C                     1.96988   1.89193  -2.8417 
 C                     1.20958   0.90039  -2.43522 
 C                     1.85192  -0.3375   -2.33053 
 C                     0.99092  -1.44858  -1.83786 
 C                    -0.36456  -1.2036   -1.54859 
 C                    -1.15354  -2.22635  -1.02054 
 C                    -0.55859  -3.44599  -0.65055 
 C                     0.74411  -3.71387  -1.02697 
 C                     1.52615  -2.71603  -1.58561 
 C                     1.37363  -5.07826  -0.80182 
 C                     0.2861   -6.15383  -0.73906 
 C                    -0.66368  -5.80953   0.40824 
 C                    -1.38578  -4.46962   0.13318 
 C                    -2.53915  -2.0399   -0.85396 
 C                    -3.08858  -0.77681  -1.01408 
 C                    -2.73343  -4.54267  -0.59382 
 C                    -3.44513  -3.1925   -0.43702 
 C                    -4.55821  -0.51695  -0.72358 
 C                    -4.73438  -0.10504   0.744 
 C                    -6.14034   0.42166   1.04992 
 C                    -6.25555   0.97375   2.4706 
 C                    -1.62559  -6.95104   0.79126 
 C                    -0.92005  -8.17676   1.37618 
 O                     2.85684  -2.99845  -1.8325 
 S                     3.62178   1.60456  -3.2208 
 C                     3.14349  -0.27578  -2.69771 
 C                     2.51437   4.3464   -3.48575 
 C                     3.16563   5.03762  -2.27996 
 C                     4.0736    6.20643  -2.67834 
 C                     4.75139   6.86536  -1.47573 
 H                    -3.36986   2.00188  -0.66513 
 H                    -3.63214   1.6635   -2.40577 
 H                    -0.14948   4.49184  -2.77691 
 H                     2.08542  -5.31668  -1.60838 
 H                     1.95173  -5.07915   0.13967 
 H                     0.75284  -7.14262  -0.59455 
 H                    -0.26758  -6.19987  -1.69263 
 H                    -0.02491  -5.63586   1.29716 
 H                    -1.60281  -4.03678   1.13058 
 H                    -2.58189  -4.78936  -1.65694 
 H                    -3.37871  -5.33434  -0.1793 
 H                    -3.74006  -3.0698    0.62051 
 H                    -4.37249  -3.21086  -1.02938 
 H                    -5.19727  -1.3837   -0.94433 
 H                    -4.94711   0.28143  -1.37552 
 H                    -4.00647   0.68592   0.99805 
 H                    -4.50756  -0.95771   1.40717 
 H                    -6.88377  -0.37975   0.89572 
 H                    -6.38668   1.22334   0.33084 
 H                    -7.2581    1.38724   2.66305 
 H                    -5.52312   1.78214   2.63182 
 H                    -6.06519   0.18832   3.21931 
 H                    -2.21611  -7.25867  -0.08954 
 H                    -2.3467   -6.57889   1.54126 
 H                    -0.26095  -8.6499    0.6323 
 H                    -1.6488   -8.93279   1.70928 
 H                    -0.30496  -7.88976   2.24355 
 H                     3.36922  -2.2869   -1.46949 
 H                     3.90304  -1.06087  -2.77521 
 H                     1.91427   5.08334  -4.04621 
 H                     3.29078   4.00996  -4.19094 
 H                     3.76081   4.29862  -1.71402 
 H                     2.37902   5.40132  -1.59535 
 H                     3.48519   6.96154  -3.22882 
 H                     4.84759   5.84274  -3.37644 
 H                     5.35618   6.13069  -0.92015 
 H                     4.00263   7.28045  -0.78222 
 H                     5.41799   7.68677  -1.78521 
 C                    -0.59366   1.07168  -5.82278 
 C                    -0.09673  -0.35733  -5.62793 
 C                    -0.98869  -1.35151  -5.2019 
 C                    -2.3196   -1.01148  -4.94985 
 C                    -2.88125   0.24837  -5.08859 
 N                    -2.04315   1.24424  -5.53366 
 C                    -4.19446   0.54598  -4.81119 
 C                    -5.08996  -0.47636  -4.34803 
 C                    -4.46322  -1.7067   -4.25689 
 C                    -3.21198  -2.01106  -4.51511 
 C                    -2.87621  -3.35403  -4.31917 
 C                    -1.45587  -3.69091  -4.60966 
 C                    -0.57472  -2.68092  -5.04086 
 C                     0.74565  -3.00582  -5.35571 
 C                     1.14882  -4.35309  -5.36513 
 C                     0.31567  -5.32032  -4.83343 
 C                    -0.98571  -5.00178  -4.48399 
 C                     0.77474  -6.75732  -4.65417 
 C                     2.29912  -6.80834  -4.53165 
 C                     2.90063  -6.20956  -5.80292 
 C                     2.5284   -4.71298  -5.92698 
 C                     1.67328  -1.99056  -5.65749 
 C                     1.23305  -0.68825  -5.84506 
 C                     3.50168  -3.69978  -5.31058 
 C                     3.15546  -2.30174  -5.84012 
 C                     2.19104   0.3947   -6.31338 
 C                     2.2304    0.41988  -7.84593 
 C                     3.16119   1.50538  -8.3936 
 C                     3.17622   1.54707  -9.92125 
 C                     4.40869  -6.47663  -5.96977 
 C                     4.75103  -7.95171  -6.17841 
 O                    -1.81209  -6.02356  -4.04313 
 S                    -5.54825  -2.92869  -3.72321 
 C                    -3.92398  -4.08611  -3.90185 
 C                    -6.51625  -0.1528   -4.00377 
 C                    -7.44839  -0.44999  -5.18487 
 C                    -8.92672  -0.30254  -4.80815 
 C                    -9.86504  -0.6637   -5.95917 
 H                    -0.41609   1.37989  -6.86522 
 H                    -0.03902   1.74257  -5.14968 
 H                    -4.55911   1.57367  -4.93932 
 H                     0.31362  -7.2077   -3.75982 
 H                     0.45288  -7.37009  -5.51584 
 H                     2.62122  -7.85177  -4.38524 
 H                     2.63917  -6.24668  -3.64488 
 H                     2.40495  -6.72152  -6.65231 
 H                     2.51809  -4.49629  -7.01432 
 H                     3.44433  -3.72831  -4.2101 
 H                     4.54797  -3.92753  -5.57259 
 H                     3.4201   -2.25323  -6.9118 
 H                     3.78558  -1.56564  -5.31712 
 H                     3.20784   0.2503   -5.92152 
 H                     1.89192   1.38674  -5.94134 
 H                     1.21294   0.58552  -8.24189 
 H                     2.55639  -0.56287  -8.22903 
 H                     4.18628   1.33445  -8.02022 
 H                     2.84308   2.48875  -8.00407 
 H                     3.84689   2.33667  -10.2967 
 H                     2.16758   1.74756  -10.3169 
 H                     3.52038   0.58723  -10.3393 
 H                     4.96017  -6.10173  -5.08969 
 H                     4.77924  -5.90665  -6.84063 
 H                     4.47383  -8.55773  -5.30229 
 H                     5.83206  -8.08419  -6.34624 
 H                     4.22181  -8.3574   -7.05566 
 H                    -2.57112  -6.044    -4.6131 
 H                    -3.99438  -5.14566  -3.63403 
 H                    -6.6042    0.91162  -3.73024 
 H                    -6.84968  -0.70899  -3.11185 
 H                    -7.28168  -1.4775   -5.55162 
 H                    -7.21787   0.22633  -6.027 
 H                    -9.11891   0.73222  -4.47626 
 H                    -9.13821  -0.95645  -3.94363 
 H                    -9.69879  -1.70443  -6.28087 
 H                    -9.68911  -0.00858  -6.82748 
 H                    -10.9225  -0.56349  -5.66809 
 
 Stoichiometry    C70H76N2O2S2
 Framework group  C1[X(C70H76N2O2S2)]
 Deg. of freedom   450
 Full point group                 C1      NOp   1
 Largest Abelian subgroup         C1      NOp   1
 Largest concise Abelian subgroup C1      NOp   1
                         Standard orientation:                         
 ---------------------------------------------------------------------
 Center     Atomic      Atomic             Coordinates (Angstroms)
 Number     Number       Type             X           Y           Z
 ---------------------------------------------------------------------
      1          6           0       -1.659860   -3.745744   -1.054477
      2          6           0       -1.575592   -2.251607   -1.354796
      3          6           0       -0.319992   -1.641846   -1.487993
      4          6           0        0.833960   -2.417974   -1.358190
      5          6           0        0.876011   -3.785772   -1.137410
      6          7           0       -0.338072   -4.427730   -1.060587
      7          6           0        2.033579   -4.518061   -1.021008
      8          6           0        3.314343   -3.874144   -1.120278
      9          6           0        3.190659   -2.515022   -1.353710
     10          6           0        2.094836   -1.800655   -1.477379
     11          6           0        2.297046   -0.440390   -1.731758
     12          6           0        1.049710    0.355466   -1.902995
     13          6           0       -0.202002   -0.275215   -1.774646
     14          6           0       -1.369301    0.454163   -2.004339
     15          6           0       -1.284736    1.768693   -2.497535
     16          6           0       -0.061418    2.411460   -2.526114
     17          6           0        1.101684    1.705740   -2.264374
     18          6           0        0.057047    3.882568   -2.887167
     19          6           0       -1.257402    4.605232   -2.581393
     20          6           0       -2.369134    3.944531   -3.396537
     21          6           0       -2.563860    2.473777   -2.959039
     22          6           0       -2.628219   -0.121937   -1.748097
     23          6           0       -2.722023   -1.477210   -1.469992
     24          6           0       -3.593525    2.207447   -1.855006
     25          6           0       -3.905555    0.705388   -1.832211
     26          6           0       -4.073835   -2.154187   -1.308625
     27          6           0       -4.558061   -2.681125   -2.665953
     28          6           0       -5.780795   -3.596862   -2.547327
     29          6           0       -6.155642   -4.238425   -3.883103
     30          6           0       -3.684063    4.747483   -3.431716
     31          6           0       -3.565052    6.086674   -4.162962
     32          8           0        2.307471    2.362966   -2.424323
     33         16           0        4.727253   -1.755638   -1.485192
     34          6           0        3.600992   -0.117121   -1.776529
     35          6           0        4.576460   -4.678373   -0.986068
     36          6           0        5.003613   -5.226497   -2.354627
     37          6           0        6.281787   -6.069848   -2.289324
     38          6           0        6.724891   -6.579419   -3.661860
     39          1           0       -2.294386   -4.238579   -1.807588
     40          1           0       -2.106571   -3.889466   -0.059456
     41          1           0        1.979037   -5.603736   -0.856493
     42          1           0        0.879778    4.355917   -2.327628
     43          1           0        0.300528    3.992149   -3.959222
     44          1           0       -1.156368    5.675361   -2.828484
     45          1           0       -1.488330    4.548147   -1.503720
     46          1           0       -2.005074    3.906785   -4.442677
     47          1           0       -2.938168    1.941884   -3.856948
     48          1           0       -3.206294    2.546319   -0.880707
     49          1           0       -4.530296    2.762024   -2.027802
     50          1           0       -4.456874    0.445501   -2.753578
     51          1           0       -4.577391    0.496739   -0.985850
     52          1           0       -4.835484   -1.490048   -0.875961
     53          1           0       -4.005646   -2.991388   -0.595797
     54          1           0       -3.747006   -3.249638   -3.154837
     55          1           0       -4.792628   -1.837917   -3.338458
     56          1           0       -6.638930   -3.028330   -2.148466
     57          1           0       -5.561684   -4.393521   -1.813992
     58          1           0       -7.009062   -4.926298   -3.775288
     59          1           0       -5.307649   -4.817129   -4.285534
     60          1           0       -6.430015   -3.474697   -4.628176
     61          1           0       -4.044634    4.926662   -2.403592
     62          1           0       -4.460347    4.146561   -3.938941
     63          1           0       -2.875745    6.766666   -3.639432
     64          1           0       -4.543275    6.588319   -4.234038
     65          1           0       -3.183927    5.934906   -5.185091
     66          1           0        2.866997    1.804053   -2.948879
     67          1           0        4.093150    0.852324   -1.907833
     68          1           0        4.407413   -5.521006   -0.294180
     69          1           0        5.399780   -4.098717   -0.539481
     70          1           0        5.165950   -4.383577   -3.050170
     71          1           0        4.184921   -5.833971   -2.779410
     72          1           0        6.125545   -6.927184   -1.611084
     73          1           0        7.093041   -5.465155   -1.847863
     74          1           0        6.900319   -5.737372   -4.350600
     75          1           0        5.952579   -7.226045   -4.108292
     76          1           0        7.657975   -7.162457   -3.596528
     77          6           0        1.518556   -2.278507    2.290399
     78          6           0        1.507039   -0.780888    2.000589
     79          6           0        0.284697   -0.101970    1.898391
     80          6           0       -0.906489   -0.814759    2.051610
     81          6           0       -1.018761   -2.171553    2.313181
     82          7           0        0.160727   -2.866103    2.449817
     83          6           0       -2.213480   -2.840165    2.438272
     84          6           0       -3.458182   -2.137353    2.302713
     85          6           0       -3.263969   -0.787916    2.065728
     86          6           0       -2.133358   -0.131273    1.941421
     87          6           0       -2.267551    1.238697    1.696724
     88          6           0       -0.982487    1.975680    1.552834
     89          6           0        0.236048    1.278874    1.662723
     90          6           0        1.440791    1.977758    1.572007
     91          6           0        1.428419    3.382317    1.502514
     92          6           0        0.235555    4.045913    1.280951
     93          6           0       -0.964083    3.356490    1.333169
     94          6           0        0.191965    5.541463    1.017751
     95          6           0        1.528880    6.010315    0.439655
     96          6           0        2.628322    5.676707    1.447829
     97          6           0        2.751321    4.145259    1.630142
     98          6           0        2.664281    1.281609    1.544375
     99          6           0        2.689293   -0.079116    1.814165
    100          6           0        3.740084    3.412026    0.714437
    101          6           0        3.980564    2.005191    1.278156
    102          6           0        4.009653   -0.822228    1.933673
    103          6           0        4.512848   -0.748814    3.380150
    104          6           0        5.832988   -1.497503    3.583393
    105          6           0        6.317239   -1.446993    5.032057
    106          6           0        3.975952    6.364373    1.157282
    107          6           0        3.931741    7.885631    1.300136
    108          8           0       -2.138989    4.079386    1.197828
    109         16           0       -4.759104    0.049177    1.927124
    110          6           0       -3.554780    1.623299    1.641589
    111          6           0       -4.768590   -2.866273    2.397647
    112          6           0       -5.347121   -2.775804    3.815154
    113          6           0       -6.764645   -3.352364    3.900743
    114          6           0       -7.375989   -3.204020    5.293576
    115          1           0        2.080764   -2.465288    3.218969
    116          1           0        2.011910   -2.804129    1.459072
    117          1           0       -2.215423   -3.919911    2.637477
    118          1           0       -0.624324    5.793452    0.320971
    119          1           0       -0.016289    6.087219    1.956014
    120          1           0        1.482120    7.092195    0.236485
    121          1           0        1.731658    5.517215   -0.526363
    122          1           0        2.286699    6.076485    2.423911
    123          1           0        3.129940    3.996106    2.661534
    124          1           0        3.349302    3.361172   -0.315059
    125          1           0        4.706936    3.938074    0.653499
    126          1           0        4.557137    2.093319    2.216604
    127          1           0        4.606235    1.446688    0.564690
    128          1           0        4.776958   -0.421242    1.256370
    129          1           0        3.907074   -1.877703    1.637884
    130          1           0        3.752203   -1.170116    4.060863
    131          1           0        4.645852    0.305908    3.678004
    132          1           0        6.605861   -1.067720    2.922035
    133          1           0        5.705403   -2.550970    3.277003
    134          1           0        7.264812   -1.994682    5.160007
    135          1           0        5.574423   -1.899240    5.708657
    136          1           0        6.483788   -0.407169    5.356920
    137          1           0        4.320278    6.109836    0.139504
    138          1           0        4.736658    5.971081    1.855300
    139          1           0        3.244237    8.339305    0.569928
    140          1           0        4.928985    8.324789    1.135856
    141          1           0        3.598099    8.175748    2.309463
    142          1           0       -2.664849    3.918604    1.971799
    143          1           0       -4.000005    2.603861    1.442582
    144          1           0       -4.628748   -3.926402    2.129141
    145          1           0       -5.497903   -2.476991    1.667849
    146          1           0       -5.376775   -1.723720    4.147290
    147          1           0       -4.692382   -3.311842    4.524882
    148          1           0       -6.745669   -4.416560    3.609305
    149          1           0       -7.402419   -2.833733    3.163183
    150          1           0       -7.423343   -2.141938    5.583388
    151          1           0       -6.769119   -3.733546    6.045509
    152          1           0       -8.397938   -3.612609    5.334395
 ---------------------------------------------------------------------
 Rotational constants (GHZ):      0.0297833      0.0273420      0.0208597
 Standard basis: 6-31G(d) (6D, 7F)
 There are  1300 symmetry adapted cartesian basis functions of A   symmetry.
 There are  1300 symmetry adapted basis functions of A   symmetry.
  1300 basis functions,  2480 primitive gaussians,  1300 cartesian basis functions
   279 alpha electrons      279 beta electrons
       nuclear repulsion energy     14567.5753533916 Hartrees.
 NAtoms=  152 NActive=  152 NUniq=  152 SFac= 1.00D+00 NAtFMM=   60 NAOKFM=T Big=T
 Integral buffers will be    131072 words long.
 Raffenetti 2 integral format.
 Two-electron integral symmetry is turned on.
 Nuclear repulsion after empirical dispersion term =    14567.1295218244 Hartrees.
 ------------------------------------------------------------------------------
 Polarizable Continuum Model (PCM)
 =================================
 Model                : PCM (using non-symmetric T matrix).
 Atomic radii         : UFF (Universal Force Field).
 Polarization charges : Total charges.
 Charge compensation  : None.
 Solution method      : On-the-fly selection.
 Cavity type          : Scaled VdW (van der Waals Surface) (Alpha=1.100).
 Cavity algorithm     : GePol (No added spheres)
                        Default sphere list used, NSphG=  152.
                        Lebedev-Laikov grids with approx.  5.0 points / Ang**2.
                        Smoothing algorithm: York/Karplus (Gamma=1.0000).
                        Polarization charges: spherical gaussians, with
                                              point-specific exponents (IZeta= 3).
                        Self-potential: point-specific (ISelfS= 7).
                        Self-field    : sphere-specific E.n sum rule (ISelfD= 2).
 Solvent              : CycloHexane, Eps=   2.016500 Eps(inf)=   2.035188
 ------------------------------------------------------------------------------
 One-electron integrals computed using PRISM.
 NBasis=  1300 RedAO= T EigKep=  8.79D-05  NBF=  1300
 NBsUse=  1300 1.00D-06 EigRej= -1.00D+00 NBFU=  1300
 ExpMin= 1.17D-01 ExpMax= 2.19D+04 ExpMxC= 3.30D+03 IAcc=1 IRadAn=         1 AccDes= 0.00D+00
 Harris functional with IExCor=  402 and IRadAn=       1 diagonalized for initial guess.
 HarFok:  IExCor=  402 AccDes= 0.00D+00 IRadAn=         1 IDoV= 1 UseB2=F ITyADJ=14
 ICtDFT=  3500011 ScaDFX=  1.000000  1.000000  1.000000  1.000000
 FoFCou: FMM=F IPFlag=           0 FMFlag=      100000 FMFlg1=        2001
         NFxFlg=           0 DoJE=T BraDBF=F KetDBF=T FulRan=T
         wScrn=  0.000000 ICntrl=     500 IOpCl=  0 I1Cent=   200000004 NGrid=           0
         NMat0=    1 NMatS0=      1 NMatT0=    0 NMatD0=    1 NMtDS0=    0 NMtDT0=    0
 Petite list used in FoFCou.
 Requested convergence on RMS density matrix=1.00D-08 within 128 cycles.
 Requested convergence on MAX density matrix=1.00D-06.
 Requested convergence on             energy=1.00D-06.
 No special actions if energy rises.
 Inv3:  Mode=1 IEnd=   212588172.
 Iteration    1 A*A^-1 deviation from unit magnitude is 1.49D-14 for   8413.
 Iteration    1 A*A^-1 deviation from orthogonality  is 4.25D-15 for   8399   7791.
 Iteration    1 A^-1*A deviation from unit magnitude is 1.49D-14 for   8413.
 Iteration    1 A^-1*A deviation from orthogonality  is 1.26D-14 for   5493   5473.
 EnCoef did     2 forward-backward iterations
 EnCoef did     9 forward-backward iterations
 EnCoef did     4 forward-backward iterations
 EnCoef did    19 forward-backward iterations
 Restarting incremental Fock formation.
 Error on total polarization charges =  0.01047
 SCF Done:  E(RB3LYP) =  -3769.92775862     A.U. after   25 cycles
            NFock= 25  Conv=0.24D-08     -V/T= 2.0080
 Hyperfine terms turned off by default for NAtoms > 100.

 **********************************************************************

            Population analysis using the SCF density.

 **********************************************************************

 Orbital symmetries:
       Occupied  (A) (A) (A) (A) (A) (A) (A) (A) (A) (A) (A) (A)
                 (A) (A) (A) (A) (A) (A) (A) (A) (A) (A) (A) (A)
                 (A) (A) (A) (A) (A) (A) (A) (A) (A) (A) (A) (A)
                 (A) (A) (A) (A) (A) (A) (A) (A) (A) (A) (A) (A)
                 (A) (A) (A) (A) (A) (A) (A) (A) (A) (A) (A) (A)
                 (A) (A) (A) (A) (A) (A) (A) (A) (A) (A) (A) (A)
                 (A) (A) (A) (A) (A) (A) (A) (A) (A) (A) (A) (A)
                 (A) (A) (A) (A) (A) (A) (A) (A) (A) (A) (A) (A)
                 (A) (A) (A) (A) (A) (A) (A) (A) (A) (A) (A) (A)
                 (A) (A) (A) (A) (A) (A) (A) (A) (A) (A) (A) (A)
                 (A) (A) (A) (A) (A) (A) (A) (A) (A) (A) (A) (A)
                 (A) (A) (A) (A) (A) (A) (A) (A) (A) (A) (A) (A)
                 (A) (A) (A) (A) (A) (A) (A) (A) (A) (A) (A) (A)
                 (A) (A) (A) (A) (A) (A) (A) (A) (A) (A) (A) (A)
                 (A) (A) (A) (A) (A) (A) (A) (A) (A) (A) (A) (A)
                 (A) (A) (A) (A) (A) (A) (A) (A) (A) (A) (A) (A)
                 (A) (A) (A) (A) (A) (A) (A) (A) (A) (A) (A) (A)
                 (A) (A) (A) (A) (A) (A) (A) (A) (A) (A) (A) (A)
                 (A) (A) (A) (A) (A) (A) (A) (A) (A) (A) (A) (A)
                 (A) (A) (A) (A) (A) (A) (A) (A) (A) (A) (A) (A)
                 (A) (A) (A) (A) (A) (A) (A) (A) (A) (A) (A) (A)
                 (A) (A) (A) (A) (A) (A) (A) (A) (A) (A) (A) (A)
                 (A) (A) (A) (A) (A) (A) (A) (A) (A) (A) (A) (A)
                 (A) (A) (A)
       Virtual   (A) (A) (A) (A) (A) (A) (A) (A) (A) (A) (A) (A)
                 (A) (A) (A) (A) (A) (A) (A) (A) (A) (A) (A) (A)
                 (A) (A) (A) (A) (A) (A) (A) (A) (A) (A) (A) (A)
                 (A) (A) (A) (A) (A) (A) (A) (A) (A) (A) (A) (A)
                 (A) (A) (A) (A) (A) (A) (A) (A) (A) (A) (A) (A)
                 (A) (A) (A) (A) (A) (A) (A) (A) (A) (A) (A) (A)
                 (A) (A) (A) (A) (A) (A) (A) (A) (A) (A) (A) (A)
                 (A) (A) (A) (A) (A) (A) (A) (A) (A) (A) (A) (A)
                 (A) (A) (A) (A) (A) (A) (A) (A) (A) (A) (A) (A)
                 (A) (A) (A) (A) (A) (A) (A) (A) (A) (A) (A) (A)
                 (A) (A) (A) (A) (A) (A) (A) (A) (A) (A) (A) (A)
                 (A) (A) (A) (A) (A) (A) (A) (A) (A) (A) (A) (A)
                 (A) (A) (A) (A) (A) (A) (A) (A) (A) (A) (A) (A)
                 (A) (A) (A) (A) (A) (A) (A) (A) (A) (A) (A) (A)
                 (A) (A) (A) (A) (A) (A) (A) (A) (A) (A) (A) (A)
                 (A) (A) (A) (A) (A) (A) (A) (A) (A) (A) (A) (A)
                 (A) (A) (A) (A) (A) (A) (A) (A) (A) (A) (A) (A)
                 (A) (A) (A) (A) (A) (A) (A) (A) (A) (A) (A) (A)
                 (A) (A) (A) (A) (A) (A) (A) (A) (A) (A) (A) (A)
                 (A) (A) (A) (A) (A) (A) (A) (A) (A) (A) (A) (A)
                 (A) (A) (A) (A) (A) (A) (A) (A) (A) (A) (A) (A)
                 (A) (A) (A) (A) (A) (A) (A) (A) (A) (A) (A) (A)
                 (A) (A) (A) (A) (A) (A) (A) (A) (A) (A) (A) (A)
                 (A) (A) (A) (A) (A) (A) (A) (A) (A) (A) (A) (A)
                 (A) (A) (A) (A) (A) (A) (A) (A) (A) (A) (A) (A)
                 (A) (A) (A) (A) (A) (A) (A) (A) (A) (A) (A) (A)
                 (A) (A) (A) (A) (A) (A) (A) (A) (A) (A) (A) (A)
                 (A) (A) (A) (A) (A) (A) (A) (A) (A) (A) (A) (A)
                 (A) (A) (A) (A) (A) (A) (A) (A) (A) (A) (A) (A)
                 (A) (A) (A) (A) (A) (A) (A) (A) (A) (A) (A) (A)
                 (A) (A) (A) (A) (A) (A) (A) (A) (A) (A) (A) (A)
                 (A) (A) (A) (A) (A) (A) (A) (A) (A) (A) (A) (A)
                 (A) (A) (A) (A) (A) (A) (A) (A) (A) (A) (A) (A)
                 (A) (A) (A) (A) (A) (A) (A) (A) (A) (A) (A) (A)
                 (A) (A) (A) (A) (A) (A) (A) (A) (A) (A) (A) (A)
                 (A) (A) (A) (A) (A) (A) (A) (A) (A) (A) (A) (A)
                 (A) (A) (A) (A) (A) (A) (A) (A) (A) (A) (A) (A)
                 (A) (A) (A) (A) (A) (A) (A) (A) (A) (A) (A) (A)
                 (A) (A) (A) (A) (A) (A) (A) (A) (A) (A) (A) (A)
                 (A) (A) (A) (A) (A) (A) (A) (A) (A) (A) (A) (A)
                 (A) (A) (A) (A) (A) (A) (A) (A) (A) (A) (A) (A)
                 (A) (A) (A) (A) (A) (A) (A) (A) (A) (A) (A) (A)
                 (A) (A) (A) (A) (A) (A) (A) (A) (A) (A) (A) (A)
                 (A) (A) (A) (A) (A) (A) (A) (A) (A) (A) (A) (A)
                 (A) (A) (A) (A) (A) (A) (A) (A) (A) (A) (A) (A)
                 (A) (A) (A) (A) (A) (A) (A) (A) (A) (A) (A) (A)
                 (A) (A) (A) (A) (A) (A) (A) (A) (A) (A) (A) (A)
                 (A) (A) (A) (A) (A) (A) (A) (A) (A) (A) (A) (A)
                 (A) (A) (A) (A) (A) (A) (A) (A) (A) (A) (A) (A)
                 (A) (A) (A) (A) (A) (A) (A) (A) (A) (A) (A) (A)
                 (A) (A) (A) (A) (A) (A) (A) (A) (A) (A) (A) (A)
                 (A) (A) (A) (A) (A) (A) (A) (A) (A) (A) (A) (A)
                 (A) (A) (A) (A) (A) (A) (A) (A) (A) (A) (A) (A)
                 (A) (A) (A) (A) (A) (A) (A) (A) (A) (A) (A) (A)
                 (A) (A) (A) (A) (A) (A) (A) (A) (A) (A) (A) (A)
                 (A) (A) (A) (A) (A) (A) (A) (A) (A) (A) (A) (A)
                 (A) (A) (A) (A) (A) (A) (A) (A) (A) (A) (A) (A)
                 (A) (A) (A) (A) (A) (A) (A) (A) (A) (A) (A) (A)
                 (A) (A) (A) (A) (A) (A) (A) (A) (A) (A) (A) (A)
                 (A) (A) (A) (A) (A) (A) (A) (A) (A) (A) (A) (A)
                 (A) (A) (A) (A) (A) (A) (A) (A) (A) (A) (A) (A)
                 (A) (A) (A) (A) (A) (A) (A) (A) (A) (A) (A) (A)
                 (A) (A) (A) (A) (A) (A) (A) (A) (A) (A) (A) (A)
                 (A) (A) (A) (A) (A) (A) (A) (A) (A) (A) (A) (A)
                 (A) (A) (A) (A) (A) (A) (A) (A) (A) (A) (A) (A)
                 (A) (A) (A) (A) (A) (A) (A) (A) (A) (A) (A) (A)
                 (A) (A) (A) (A) (A) (A) (A) (A) (A) (A) (A) (A)
                 (A) (A) (A) (A) (A) (A) (A) (A) (A) (A) (A) (A)
                 (A) (A) (A) (A) (A) (A) (A) (A) (A) (A) (A) (A)
                 (A) (A) (A) (A) (A) (A) (A) (A) (A) (A) (A) (A)
                 (A) (A) (A) (A) (A) (A) (A) (A) (A) (A) (A) (A)
                 (A) (A) (A) (A) (A) (A) (A) (A) (A) (A) (A) (A)
                 (A) (A) (A) (A) (A) (A) (A) (A) (A) (A) (A) (A)
                 (A) (A) (A) (A) (A) (A) (A) (A) (A) (A) (A) (A)
                 (A) (A) (A) (A) (A) (A) (A) (A) (A) (A) (A) (A)
                 (A) (A) (A) (A) (A) (A) (A) (A) (A) (A) (A) (A)
                 (A) (A) (A) (A) (A) (A) (A) (A) (A) (A) (A) (A)
                 (A) (A) (A) (A) (A) (A) (A) (A) (A) (A) (A) (A)
                 (A) (A) (A) (A) (A) (A) (A) (A) (A) (A) (A) (A)
                 (A) (A) (A) (A) (A) (A) (A) (A) (A) (A) (A) (A)
                 (A) (A) (A) (A) (A) (A) (A) (A) (A) (A) (A) (A)
                 (A) (A) (A) (A) (A) (A) (A) (A) (A) (A) (A) (A)
                 (A) (A) (A) (A) (A) (A) (A) (A) (A) (A) (A) (A)
                 (A) (A) (A) (A) (A) (A) (A) (A) (A) (A) (A) (A)
                 (A) (A) (A) (A) (A) (A) (A) (A) (A) (A) (A) (A)
                 (A)
 The electronic state is 1-A.
 Alpha  occ. eigenvalues --  -88.90086 -88.90082 -19.17923 -19.17847 -14.30424
 Alpha  occ. eigenvalues --  -14.30260 -10.24574 -10.24557 -10.22560 -10.22517
 Alpha  occ. eigenvalues --  -10.21159 -10.21053 -10.20930 -10.20861 -10.20655
 Alpha  occ. eigenvalues --  -10.20634 -10.20570 -10.20528 -10.20186 -10.20148
 Alpha  occ. eigenvalues --  -10.20048 -10.20017 -10.19459 -10.19335 -10.19284
 Alpha  occ. eigenvalues --  -10.19213 -10.19213 -10.19203 -10.19160 -10.19123
 Alpha  occ. eigenvalues --  -10.19120 -10.18994 -10.18970 -10.18968 -10.18949
 Alpha  occ. eigenvalues --  -10.18857 -10.18818 -10.18797 -10.18779 -10.18725
 Alpha  occ. eigenvalues --  -10.18709 -10.18628 -10.18526 -10.18518 -10.18462
 Alpha  occ. eigenvalues --  -10.18389 -10.18367 -10.18294 -10.18279 -10.18255
 Alpha  occ. eigenvalues --  -10.18225 -10.18180 -10.18171 -10.18162 -10.18152
 Alpha  occ. eigenvalues --  -10.18117 -10.18057 -10.17957 -10.17943 -10.17909
 Alpha  occ. eigenvalues --  -10.17901 -10.17869 -10.17849 -10.17821 -10.17801
 Alpha  occ. eigenvalues --  -10.17749 -10.17712 -10.17631 -10.17473 -10.17421
 Alpha  occ. eigenvalues --  -10.17332 -10.17316 -10.17248 -10.17247 -10.17198
 Alpha  occ. eigenvalues --  -10.17179  -7.96009  -7.96004  -5.92445  -5.92439
 Alpha  occ. eigenvalues --   -5.92136  -5.92130  -5.91625  -5.91624  -1.06402
 Alpha  occ. eigenvalues --   -1.06262  -0.92297  -0.92100  -0.89028  -0.88907
 Alpha  occ. eigenvalues --   -0.88309  -0.88217  -0.84918  -0.84767  -0.83789
 Alpha  occ. eigenvalues --   -0.83660  -0.81885  -0.81811  -0.80364  -0.80282
 Alpha  occ. eigenvalues --   -0.80163  -0.79982  -0.79299  -0.79211  -0.78535
 Alpha  occ. eigenvalues --   -0.78450  -0.76818  -0.76693  -0.75857  -0.75762
 Alpha  occ. eigenvalues --   -0.74744  -0.74609  -0.73738  -0.73624  -0.72662
 Alpha  occ. eigenvalues --   -0.72517  -0.71802  -0.71747  -0.71103  -0.70978
 Alpha  occ. eigenvalues --   -0.70773  -0.70689  -0.68367  -0.68234  -0.65210
 Alpha  occ. eigenvalues --   -0.65123  -0.64703  -0.64587  -0.64505  -0.64448
 Alpha  occ. eigenvalues --   -0.63030  -0.62861  -0.62057  -0.61923  -0.61628
 Alpha  occ. eigenvalues --   -0.61474  -0.60863  -0.60776  -0.60134  -0.60110
 Alpha  occ. eigenvalues --   -0.58951  -0.58860  -0.57888  -0.57806  -0.57625
 Alpha  occ. eigenvalues --   -0.57511  -0.57384  -0.57304  -0.54834  -0.54720
 Alpha  occ. eigenvalues --   -0.54227  -0.54124  -0.52794  -0.52747  -0.51871
 Alpha  occ. eigenvalues --   -0.51565  -0.51058  -0.50884  -0.50188  -0.50033
 Alpha  occ. eigenvalues --   -0.49072  -0.48970  -0.48022  -0.47910  -0.47230
 Alpha  occ. eigenvalues --   -0.47038  -0.46492  -0.46382  -0.46021  -0.46006
 Alpha  occ. eigenvalues --   -0.45898  -0.45271  -0.45069  -0.44970  -0.44849
 Alpha  occ. eigenvalues --   -0.44631  -0.44429  -0.44236  -0.43813  -0.43666
 Alpha  occ. eigenvalues --   -0.43620  -0.43258  -0.43106  -0.42984  -0.42979
 Alpha  occ. eigenvalues --   -0.42740  -0.42525  -0.42421  -0.42146  -0.42039
 Alpha  occ. eigenvalues --   -0.42003  -0.41760  -0.41388  -0.41312  -0.41154
 Alpha  occ. eigenvalues --   -0.41050  -0.40831  -0.40780  -0.40694  -0.40535
 Alpha  occ. eigenvalues --   -0.40446  -0.40383  -0.39990  -0.39867  -0.39453
 Alpha  occ. eigenvalues --   -0.39249  -0.39059  -0.38918  -0.38625  -0.38513
 Alpha  occ. eigenvalues --   -0.38043  -0.37935  -0.37897  -0.37795  -0.37690
 Alpha  occ. eigenvalues --   -0.37470  -0.37007  -0.36832  -0.36459  -0.36267
 Alpha  occ. eigenvalues --   -0.35994  -0.35901  -0.35681  -0.35609  -0.35550
 Alpha  occ. eigenvalues --   -0.35374  -0.35329  -0.35180  -0.34900  -0.34597
 Alpha  occ. eigenvalues --   -0.34559  -0.34399  -0.34307  -0.34239  -0.34037
 Alpha  occ. eigenvalues --   -0.34012  -0.33918  -0.33832  -0.33695  -0.33493
 Alpha  occ. eigenvalues --   -0.33300  -0.33211  -0.33106  -0.33054  -0.32985
 Alpha  occ. eigenvalues --   -0.32809  -0.32562  -0.32465  -0.32249  -0.32144
 Alpha  occ. eigenvalues --   -0.31960  -0.31914  -0.31727  -0.31692  -0.31211
 Alpha  occ. eigenvalues --   -0.31012  -0.30722  -0.30690  -0.30208  -0.29650
 Alpha  occ. eigenvalues --   -0.29585  -0.29369  -0.29267  -0.29150  -0.28799
 Alpha  occ. eigenvalues --   -0.28626  -0.25859  -0.25371  -0.24862  -0.24096
 Alpha  occ. eigenvalues --   -0.23972  -0.23685  -0.22890  -0.22611  -0.21925
 Alpha  occ. eigenvalues --   -0.21857  -0.18832  -0.18780  -0.13795
 Alpha virt. eigenvalues --   -0.11492  -0.06062  -0.05916  -0.02001  -0.01827
 Alpha virt. eigenvalues --   -0.01143  -0.01031  -0.00210  -0.00125   0.00592
 Alpha virt. eigenvalues --    0.00688   0.05337   0.05477   0.06450   0.07132
 Alpha virt. eigenvalues --    0.07277   0.07511   0.08020   0.08219   0.08527
 Alpha virt. eigenvalues --    0.08683   0.08770   0.08887   0.09252   0.09785
 Alpha virt. eigenvalues --    0.09834   0.10062   0.10275   0.10310   0.10588
 Alpha virt. eigenvalues --    0.11359   0.11487   0.11666   0.11857   0.11871
 Alpha virt. eigenvalues --    0.11956   0.12341   0.12405   0.12572   0.12885
 Alpha virt. eigenvalues --    0.13510   0.13740   0.13820   0.14010   0.14202
 Alpha virt. eigenvalues --    0.14393   0.14461   0.14525   0.14819   0.14873
 Alpha virt. eigenvalues --    0.15204   0.15234   0.15620   0.15713   0.15786
 Alpha virt. eigenvalues --    0.16008   0.16156   0.16373   0.16435   0.16570
 Alpha virt. eigenvalues --    0.16640   0.16843   0.16990   0.17131   0.17243
 Alpha virt. eigenvalues --    0.17371   0.17590   0.17704   0.17794   0.17901
 Alpha virt. eigenvalues --    0.17958   0.18088   0.18169   0.18308   0.18428
 Alpha virt. eigenvalues --    0.18571   0.18936   0.19169   0.19302   0.19410
 Alpha virt. eigenvalues --    0.19440   0.19545   0.19625   0.19705   0.19859
 Alpha virt. eigenvalues --    0.19882   0.19978   0.20222   0.20370   0.20628
 Alpha virt. eigenvalues --    0.20709   0.21196   0.21338   0.21674   0.21889
 Alpha virt. eigenvalues --    0.22019   0.22226   0.22483   0.22624   0.22696
 Alpha virt. eigenvalues --    0.22800   0.22875   0.23080   0.23409   0.23541
 Alpha virt. eigenvalues --    0.23678   0.23932   0.24358   0.24479   0.24596
 Alpha virt. eigenvalues --    0.24676   0.24896   0.25009   0.25227   0.25297
 Alpha virt. eigenvalues --    0.25359   0.25618   0.25705   0.25770   0.26068
 Alpha virt. eigenvalues --    0.26196   0.26374   0.26550   0.26866   0.27118
 Alpha virt. eigenvalues --    0.27461   0.27718   0.27972   0.28213   0.28322
 Alpha virt. eigenvalues --    0.28603   0.28808   0.29142   0.29394   0.29726
 Alpha virt. eigenvalues --    0.29788   0.30010   0.30210   0.30468   0.30798
 Alpha virt. eigenvalues --    0.30917   0.31145   0.31499   0.31989   0.32208
 Alpha virt. eigenvalues --    0.32370   0.32687   0.33014   0.33508   0.33921
 Alpha virt. eigenvalues --    0.34226   0.34309   0.34652   0.35526   0.36054
 Alpha virt. eigenvalues --    0.36338   0.36892   0.37570   0.37745   0.38436
 Alpha virt. eigenvalues --    0.38939   0.39099   0.39456   0.39998   0.40469
 Alpha virt. eigenvalues --    0.40838   0.40948   0.41213   0.41888   0.42055
 Alpha virt. eigenvalues --    0.42461   0.43248   0.43800   0.43988   0.44519
 Alpha virt. eigenvalues --    0.45772   0.46337   0.46902   0.47055   0.47365
 Alpha virt. eigenvalues --    0.47476   0.47721   0.48116   0.48687   0.48987
 Alpha virt. eigenvalues --    0.49158   0.49395   0.49798   0.49853   0.49899
 Alpha virt. eigenvalues --    0.50628   0.50746   0.51026   0.51277   0.51382
 Alpha virt. eigenvalues --    0.51400   0.51592   0.51863   0.52032   0.52345
 Alpha virt. eigenvalues --    0.52450   0.52681   0.52745   0.52936   0.53098
 Alpha virt. eigenvalues --    0.53419   0.53610   0.53986   0.54155   0.54249
 Alpha virt. eigenvalues --    0.54456   0.54623   0.54699   0.54978   0.55176
 Alpha virt. eigenvalues --    0.55342   0.55640   0.55799   0.55843   0.55877
 Alpha virt. eigenvalues --    0.56054   0.56149   0.56365   0.56445   0.56836
 Alpha virt. eigenvalues --    0.57170   0.57317   0.57447   0.57618   0.57753
 Alpha virt. eigenvalues --    0.58144   0.58336   0.58670   0.58805   0.58978
 Alpha virt. eigenvalues --    0.59189   0.59490   0.59760   0.59924   0.60080
 Alpha virt. eigenvalues --    0.60263   0.60458   0.60527   0.60736   0.60965
 Alpha virt. eigenvalues --    0.61288   0.61446   0.61744   0.62193   0.62496
 Alpha virt. eigenvalues --    0.62595   0.62966   0.63291   0.63417   0.63949
 Alpha virt. eigenvalues --    0.64104   0.64212   0.64385   0.64629   0.64801
 Alpha virt. eigenvalues --    0.64834   0.65318   0.65362   0.65774   0.66068
 Alpha virt. eigenvalues --    0.66543   0.66570   0.66907   0.67150   0.67492
 Alpha virt. eigenvalues --    0.67639   0.67816   0.67969   0.68506   0.68582
 Alpha virt. eigenvalues --    0.68728   0.69156   0.69244   0.69507   0.69718
 Alpha virt. eigenvalues --    0.69787   0.70008   0.70223   0.70448   0.70608
 Alpha virt. eigenvalues --    0.70848   0.70969   0.71215   0.71431   0.71626
 Alpha virt. eigenvalues --    0.72092   0.72542   0.72742   0.72812   0.73246
 Alpha virt. eigenvalues --    0.73363   0.73746   0.74250   0.74275   0.74431
 Alpha virt. eigenvalues --    0.75005   0.75282   0.75638   0.76180   0.76435
 Alpha virt. eigenvalues --    0.76593   0.77047   0.77434   0.77568   0.77756
 Alpha virt. eigenvalues --    0.78028   0.78491   0.78662   0.78777   0.79112
 Alpha virt. eigenvalues --    0.79259   0.79398   0.79638   0.79794   0.79956
 Alpha virt. eigenvalues --    0.80040   0.80243   0.80593   0.80736   0.80844
 Alpha virt. eigenvalues --    0.81303   0.81458   0.81771   0.81991   0.82188
 Alpha virt. eigenvalues --    0.82261   0.82437   0.82694   0.82874   0.83114
 Alpha virt. eigenvalues --    0.83387   0.83481   0.83710   0.84051   0.84265
 Alpha virt. eigenvalues --    0.84393   0.84702   0.85001   0.85055   0.85314
 Alpha virt. eigenvalues --    0.85495   0.85586   0.85628   0.86012   0.86085
 Alpha virt. eigenvalues --    0.86287   0.86499   0.86722   0.86814   0.87078
 Alpha virt. eigenvalues --    0.87176   0.87458   0.87551   0.87764   0.88022
 Alpha virt. eigenvalues --    0.88081   0.88256   0.88434   0.88776   0.88921
 Alpha virt. eigenvalues --    0.89033   0.89171   0.89469   0.89656   0.89894
 Alpha virt. eigenvalues --    0.89988   0.90168   0.90229   0.90436   0.90602
 Alpha virt. eigenvalues --    0.90697   0.90905   0.91213   0.91378   0.91809
 Alpha virt. eigenvalues --    0.91884   0.92012   0.92158   0.92286   0.92651
 Alpha virt. eigenvalues --    0.92662   0.92782   0.93187   0.93238   0.93540
 Alpha virt. eigenvalues --    0.93744   0.93774   0.94016   0.94179   0.94553
 Alpha virt. eigenvalues --    0.94693   0.94838   0.95024   0.95081   0.95372
 Alpha virt. eigenvalues --    0.95422   0.95630   0.95774   0.95849   0.95913
 Alpha virt. eigenvalues --    0.96156   0.96245   0.96436   0.96794   0.96958
 Alpha virt. eigenvalues --    0.97052   0.97171   0.97331   0.97489   0.97626
 Alpha virt. eigenvalues --    0.98083   0.98333   0.98613   0.98787   0.99037
 Alpha virt. eigenvalues --    0.99142   0.99479   0.99571   1.00036   1.00221
 Alpha virt. eigenvalues --    1.00482   1.00771   1.01087   1.01201   1.01412
 Alpha virt. eigenvalues --    1.01569   1.02052   1.02470   1.02653   1.02751
 Alpha virt. eigenvalues --    1.03503   1.03607   1.04072   1.04164   1.04500
 Alpha virt. eigenvalues --    1.04543   1.05084   1.05172   1.05684   1.05896
 Alpha virt. eigenvalues --    1.06357   1.07077   1.07446   1.07636   1.07874
 Alpha virt. eigenvalues --    1.08068   1.08489   1.08692   1.09159   1.09666
 Alpha virt. eigenvalues --    1.09862   1.10377   1.10591   1.11135   1.11684
 Alpha virt. eigenvalues --    1.11768   1.12187   1.12561   1.12749   1.13271
 Alpha virt. eigenvalues --    1.13635   1.14427   1.14722   1.15055   1.15616
 Alpha virt. eigenvalues --    1.16095   1.16568   1.16933   1.16967   1.17602
 Alpha virt. eigenvalues --    1.18055   1.18646   1.18751   1.19211   1.20122
 Alpha virt. eigenvalues --    1.20394   1.20588   1.21106   1.21607   1.21724
 Alpha virt. eigenvalues --    1.22204   1.22698   1.23179   1.23322   1.23604
 Alpha virt. eigenvalues --    1.24240   1.24564   1.24876   1.25229   1.25571
 Alpha virt. eigenvalues --    1.25909   1.26228   1.26645   1.26912   1.27973
 Alpha virt. eigenvalues --    1.28082   1.28905   1.29731   1.29815   1.30159
 Alpha virt. eigenvalues --    1.30606   1.31172   1.31344   1.31915   1.32284
 Alpha virt. eigenvalues --    1.32764   1.33091   1.33716   1.33869   1.34755
 Alpha virt. eigenvalues --    1.35060   1.35541   1.35848   1.36149   1.36509
 Alpha virt. eigenvalues --    1.36790   1.37245   1.37463   1.37545   1.38259
 Alpha virt. eigenvalues --    1.38431   1.38755   1.39206   1.39717   1.40103
 Alpha virt. eigenvalues --    1.40603   1.40919   1.41152   1.41434   1.41678
 Alpha virt. eigenvalues --    1.42461   1.43091   1.43304   1.44006   1.44712
 Alpha virt. eigenvalues --    1.44888   1.45351   1.46211   1.46392   1.46794
 Alpha virt. eigenvalues --    1.47053   1.47456   1.47842   1.47928   1.48700
 Alpha virt. eigenvalues --    1.49028   1.50225   1.50861   1.51202   1.51654
 Alpha virt. eigenvalues --    1.52133   1.52318   1.52840   1.53174   1.53427
 Alpha virt. eigenvalues --    1.53784   1.53931   1.54493   1.55118   1.55227
 Alpha virt. eigenvalues --    1.55486   1.56599   1.57752   1.57984   1.58664
 Alpha virt. eigenvalues --    1.59038   1.59067   1.59444   1.59832   1.60169
 Alpha virt. eigenvalues --    1.60772   1.61264   1.61644   1.61725   1.62925
 Alpha virt. eigenvalues --    1.63052   1.63766   1.64050   1.64864   1.65130
 Alpha virt. eigenvalues --    1.65546   1.66117   1.66719   1.67018   1.67208
 Alpha virt. eigenvalues --    1.68043   1.68488   1.68725   1.69535   1.69571
 Alpha virt. eigenvalues --    1.70031   1.70688   1.71160   1.71414   1.71631
 Alpha virt. eigenvalues --    1.72424   1.72633   1.73392   1.73494   1.73855
 Alpha virt. eigenvalues --    1.74070   1.74508   1.74948   1.75246   1.75388
 Alpha virt. eigenvalues --    1.75552   1.75807   1.76370   1.76530   1.77198
 Alpha virt. eigenvalues --    1.77585   1.77812   1.78150   1.78196   1.78373
 Alpha virt. eigenvalues --    1.78856   1.79368   1.79572   1.79839   1.79953
 Alpha virt. eigenvalues --    1.81000   1.81253   1.81426   1.81610   1.81735
 Alpha virt. eigenvalues --    1.82172   1.82705   1.82985   1.83301   1.83371
 Alpha virt. eigenvalues --    1.83932   1.84059   1.84680   1.85075   1.85327
 Alpha virt. eigenvalues --    1.85447   1.85535   1.86008   1.86238   1.86628
 Alpha virt. eigenvalues --    1.86769   1.86846   1.87128   1.87341   1.88258
 Alpha virt. eigenvalues --    1.88791   1.88909   1.89184   1.89518   1.89828
 Alpha virt. eigenvalues --    1.90025   1.90436   1.90553   1.90780   1.91144
 Alpha virt. eigenvalues --    1.91339   1.91364   1.91892   1.92141   1.92384
 Alpha virt. eigenvalues --    1.92619   1.92802   1.92874   1.93428   1.93717
 Alpha virt. eigenvalues --    1.93749   1.94312   1.94524   1.94760   1.95117
 Alpha virt. eigenvalues --    1.95292   1.95508   1.95820   1.96075   1.96222
 Alpha virt. eigenvalues --    1.96487   1.96608   1.96845   1.97086   1.97402
 Alpha virt. eigenvalues --    1.97616   1.97759   1.97852   1.97977   1.98318
 Alpha virt. eigenvalues --    1.98537   1.98819   1.99173   1.99496   1.99778
 Alpha virt. eigenvalues --    2.00051   2.00076   2.00476   2.01073   2.01351
 Alpha virt. eigenvalues --    2.01575   2.01807   2.01892   2.02606   2.02958
 Alpha virt. eigenvalues --    2.03243   2.03745   2.04069   2.04292   2.04315
 Alpha virt. eigenvalues --    2.05011   2.05102   2.05405   2.05467   2.05766
 Alpha virt. eigenvalues --    2.06543   2.06754   2.07022   2.07542   2.07625
 Alpha virt. eigenvalues --    2.08067   2.08259   2.08822   2.09207   2.09562
 Alpha virt. eigenvalues --    2.10122   2.10660   2.11060   2.11283   2.11639
 Alpha virt. eigenvalues --    2.11759   2.13448   2.13936   2.14158   2.14428
 Alpha virt. eigenvalues --    2.14674   2.14794   2.15141   2.15844   2.16376
 Alpha virt. eigenvalues --    2.16528   2.17374   2.17713   2.18047   2.18264
 Alpha virt. eigenvalues --    2.18879   2.19440   2.19978   2.20042   2.20599
 Alpha virt. eigenvalues --    2.20887   2.21507   2.21535   2.21942   2.22303
 Alpha virt. eigenvalues --    2.22754   2.23637   2.23981   2.24979   2.25261
 Alpha virt. eigenvalues --    2.25551   2.25685   2.25957   2.26137   2.26227
 Alpha virt. eigenvalues --    2.26335   2.26877   2.27144   2.27348   2.27437
 Alpha virt. eigenvalues --    2.27706   2.28248   2.28947   2.28985   2.29721
 Alpha virt. eigenvalues --    2.29744   2.29927   2.30259   2.30539   2.30806
 Alpha virt. eigenvalues --    2.31196   2.31412   2.31683   2.31894   2.32199
 Alpha virt. eigenvalues --    2.32807   2.32906   2.33137   2.33499   2.34164
 Alpha virt. eigenvalues --    2.34248   2.34826   2.35290   2.35497   2.35837
 Alpha virt. eigenvalues --    2.36240   2.36337   2.36346   2.36562   2.36858
 Alpha virt. eigenvalues --    2.37051   2.37372   2.37705   2.38174   2.38693
 Alpha virt. eigenvalues --    2.38948   2.39166   2.39329   2.39893   2.39903
 Alpha virt. eigenvalues --    2.40181   2.40381   2.40440   2.41369   2.41866
 Alpha virt. eigenvalues --    2.42220   2.42366   2.42993   2.43245   2.43449
 Alpha virt. eigenvalues --    2.44027   2.44234   2.44351   2.45078   2.45373
 Alpha virt. eigenvalues --    2.46307   2.46864   2.46983   2.47256   2.47586
 Alpha virt. eigenvalues --    2.48180   2.48954   2.49603   2.49816   2.49960
 Alpha virt. eigenvalues --    2.50394   2.50806   2.51591   2.51918   2.52546
 Alpha virt. eigenvalues --    2.52975   2.54368   2.54999   2.55153   2.55875
 Alpha virt. eigenvalues --    2.56047   2.56521   2.56886   2.57040   2.57324
 Alpha virt. eigenvalues --    2.57561   2.57857   2.58126   2.58488   2.58921
 Alpha virt. eigenvalues --    2.59367   2.59520   2.60319   2.61468   2.61879
 Alpha virt. eigenvalues --    2.62169   2.64068   2.64869   2.65531   2.66084
 Alpha virt. eigenvalues --    2.66318   2.67044   2.67415   2.68038   2.68585
 Alpha virt. eigenvalues --    2.68624   2.69045   2.69395   2.69643   2.70197
 Alpha virt. eigenvalues --    2.71387   2.71971   2.72728   2.72971   2.73801
 Alpha virt. eigenvalues --    2.73981   2.74269   2.74895   2.75356   2.76115
 Alpha virt. eigenvalues --    2.77546   2.77977   2.78419   2.78964   2.79430
 Alpha virt. eigenvalues --    2.79549   2.80257   2.80516   2.81583   2.81837
 Alpha virt. eigenvalues --    2.82069   2.82780   2.83391   2.84059   2.84919
 Alpha virt. eigenvalues --    2.85589   2.86595   2.87024   2.87465   2.88115
 Alpha virt. eigenvalues --    2.88497   2.88817   2.90330   2.90664   2.91334
 Alpha virt. eigenvalues --    2.91639   2.92935   2.93225   2.97010   2.97238
 Alpha virt. eigenvalues --    2.97495   2.98462   2.98842   2.99305   3.01846
 Alpha virt. eigenvalues --    3.02497   3.05141   3.06668   3.06830   3.07239
 Alpha virt. eigenvalues --    3.09545   3.09898   3.10553   3.11368   3.14324
 Alpha virt. eigenvalues --    3.17703   3.19516   3.22308   3.25309   3.25495
 Alpha virt. eigenvalues --    3.26865   3.31094   3.39784   3.39832   3.44588
 Alpha virt. eigenvalues --    3.44727   3.61130   3.61182   3.64895   3.65051
 Alpha virt. eigenvalues --    3.96133   3.96283   4.00318   4.01462   4.05632
 Alpha virt. eigenvalues --    4.08825   4.09580   4.10471   4.12105   4.12433
 Alpha virt. eigenvalues --    4.12996   4.13105   4.14010   4.14303   4.15202
 Alpha virt. eigenvalues --    4.15653   4.15917   4.17429   4.18404   4.18990
 Alpha virt. eigenvalues --    4.19563   4.19991   4.20501   4.21120   4.21631
 Alpha virt. eigenvalues --    4.22410   4.24529   4.25239   4.25462   4.26085
 Alpha virt. eigenvalues --    4.27411   4.28483   4.28862   4.29448   4.29698
 Alpha virt. eigenvalues --    4.29898   4.30251   4.30945   4.32965   4.33966
 Alpha virt. eigenvalues --    4.37711   4.39063   4.40004   4.40539   4.41401
 Alpha virt. eigenvalues --    4.41587   4.42688   4.43689   4.44178   4.44473
 Alpha virt. eigenvalues --    4.44742   4.45049   4.48123   4.49891   4.51278
 Alpha virt. eigenvalues --    4.51431   4.53696   4.54019   4.54752   4.55614
 Alpha virt. eigenvalues --    4.56108   4.56858   4.59291   4.59617   4.60319
 Alpha virt. eigenvalues --    4.60682   4.62606   4.64420   4.70456   4.70633
 Alpha virt. eigenvalues --    4.76924   4.77183   4.83453   4.84538   5.05014
 Alpha virt. eigenvalues --    5.06806
          Condensed to atoms (all electrons):
 Mulliken charges:
               1
     1  C   -0.225872
     2  C    0.048867
     3  C    0.038287
     4  C    0.065442
     5  C    0.276466
     6  N   -0.560326
     7  C   -0.226920
     8  C    0.164380
     9  C   -0.313351
    10  C    0.085058
    11  C    0.278077
    12  C    0.071822
    13  C    0.120455
    14  C    0.008322
    15  C    0.019124
    16  C    0.082372
    17  C    0.141637
    18  C   -0.350595
    19  C   -0.298289
    20  C   -0.072417
    21  C   -0.173392
    22  C    0.067325
    23  C    0.022438
    24  C   -0.294671
    25  C   -0.370793
    26  C   -0.365425
    27  C   -0.257699
    28  C   -0.246804
    29  C   -0.441911
    30  C   -0.262452
    31  C   -0.450455
    32  O   -0.667650
    33  S    0.144137
    34  C   -0.568048
    35  C   -0.383783
    36  C   -0.248007
    37  C   -0.247075
    38  C   -0.442366
    39  H    0.172557
    40  H    0.187580
    41  H    0.136983
    42  H    0.166425
    43  H    0.146919
    44  H    0.130429
    45  H    0.162438
    46  H    0.116851
    47  H    0.136579
    48  H    0.168289
    49  H    0.130678
    50  H    0.149093
    51  H    0.173465
    52  H    0.152258
    53  H    0.150411
    54  H    0.139401
    55  H    0.137979
    56  H    0.130833
    57  H    0.132218
    58  H    0.141712
    59  H    0.143806
    60  H    0.141020
    61  H    0.138779
    62  H    0.129526
    63  H    0.147298
    64  H    0.142417
    65  H    0.141012
    66  H    0.414649
    67  H    0.165047
    68  H    0.160067
    69  H    0.160258
    70  H    0.147180
    71  H    0.143350
    72  H    0.133001
    73  H    0.131860
    74  H    0.143229
    75  H    0.144055
    76  H    0.142377
    77  C   -0.226486
    78  C    0.042508
    79  C    0.040320
    80  C    0.069680
    81  C    0.276352
    82  N   -0.561961
    83  C   -0.249610
    84  C    0.174639
    85  C   -0.310421
    86  C    0.093349
    87  C    0.274433
    88  C    0.071522
    89  C    0.129118
    90  C    0.008756
    91  C    0.017523
    92  C    0.077724
    93  C    0.146178
    94  C   -0.340337
    95  C   -0.294728
    96  C   -0.073179
    97  C   -0.173790
    98  C    0.072260
    99  C    0.024985
   100  C   -0.299796
   101  C   -0.367672
   102  C   -0.355992
   103  C   -0.258494
   104  C   -0.244271
   105  C   -0.441816
   106  C   -0.261850
   107  C   -0.451019
   108  O   -0.680279
   109  S    0.139561
   110  C   -0.560051
   111  C   -0.385629
   112  C   -0.252594
   113  C   -0.247301
   114  C   -0.442459
   115  H    0.177806
   116  H    0.185989
   117  H    0.139156
   118  H    0.162214
   119  H    0.146943
   120  H    0.133695
   121  H    0.152627
   122  H    0.118391
   123  H    0.137424
   124  H    0.169406
   125  H    0.132695
   126  H    0.152946
   127  H    0.158681
   128  H    0.154978
   129  H    0.149513
   130  H    0.137874
   131  H    0.136247
   132  H    0.130359
   133  H    0.132756
   134  H    0.141368
   135  H    0.143562
   136  H    0.140093
   137  H    0.137088
   138  H    0.130580
   139  H    0.147766
   140  H    0.143183
   141  H    0.141592
   142  H    0.418035
   143  H    0.162791
   144  H    0.158226
   145  H    0.160711
   146  H    0.151241
   147  H    0.142389
   148  H    0.133037
   149  H    0.131761
   150  H    0.143627
   151  H    0.143679
   152  H    0.142463
 Sum of Mulliken charges =  -0.00000
 Mulliken charges with hydrogens summed into heavy atoms:
               1
     1  C    0.134265
     2  C    0.048867
     3  C    0.038287
     4  C    0.065442
     5  C    0.276466
     6  N   -0.560326
     7  C   -0.089937
     8  C    0.164380
     9  C   -0.313351
    10  C    0.085058
    11  C    0.278077
    12  C    0.071822
    13  C    0.120455
    14  C    0.008322
    15  C    0.019124
    16  C    0.082372
    17  C    0.141637
    18  C   -0.037251
    19  C   -0.005422
    20  C    0.044433
    21  C   -0.036813
    22  C    0.067325
    23  C    0.022438
    24  C    0.004296
    25  C   -0.048235
    26  C   -0.062756
    27  C    0.019681
    28  C    0.016247
    29  C   -0.015373
    30  C    0.005853
    31  C   -0.019728
    32  O   -0.253001
    33  S    0.144137
    34  C   -0.403002
    35  C   -0.063457
    36  C    0.042522
    37  C    0.017786
    38  C   -0.012705
    77  C    0.137309
    78  C    0.042508
    79  C    0.040320
    80  C    0.069680
    81  C    0.276352
    82  N   -0.561961
    83  C   -0.110454
    84  C    0.174639
    85  C   -0.310421
    86  C    0.093349
    87  C    0.274433
    88  C    0.071522
    89  C    0.129118
    90  C    0.008756
    91  C    0.017523
    92  C    0.077724
    93  C    0.146178
    94  C   -0.031180
    95  C   -0.008406
    96  C    0.045212
    97  C   -0.036366
    98  C    0.072260
    99  C    0.024985
   100  C    0.002305
   101  C   -0.056045
   102  C   -0.051501
   103  C    0.015627
   104  C    0.018843
   105  C   -0.016793
   106  C    0.005818
   107  C   -0.018477
   108  O   -0.262244
   109  S    0.139561
   110  C   -0.397260
   111  C   -0.066693
   112  C    0.041036
   113  C    0.017498
   114  C   -0.012690
 Electronic spatial extent (au):  <R**2>=          61071.9513
 Charge=             -0.0000 electrons
 Dipole moment (field-independent basis, Debye):
    X=              0.3628    Y=              5.0848    Z=             -0.6263  Tot=              5.1361
 Quadrupole moment (field-independent basis, Debye-Ang):
   XX=           -430.2549   YY=           -461.6643   ZZ=           -461.2483
   XY=              0.3938   XZ=              1.2846   YZ=              2.6620
 Traceless Quadrupole moment (field-independent basis, Debye-Ang):
   XX=             20.8010   YY=            -10.6085   ZZ=            -10.1925
   XY=              0.3938   XZ=              1.2846   YZ=              2.6620
 Octapole moment (field-independent basis, Debye-Ang**2):
  XXX=              3.0223  YYY=            115.6574  ZZZ=            -32.0630  XYY=             23.2876
  XXY=            -30.5960  XXZ=              5.8010  XZZ=             -4.5445  YZZ=             58.0979
  YYZ=             25.8048  XYZ=              8.7243
 Hexadecapole moment (field-independent basis, Debye-Ang**3):
 XXXX=         -35727.8871 YYYY=         -32129.5180 ZZZZ=         -16229.1632 XXXY=             10.5823
 XXXZ=            -36.1957 YYYX=           -209.4040 YYYZ=            108.3922 ZZZX=            -18.7747
 ZZZY=            -70.4754 XXYY=         -10838.1754 XXZZ=          -8691.0869 YYZZ=          -8002.0030
 XXYZ=            -59.3056 YYXZ=           -135.8206 ZZXY=             36.2941
 N-N= 1.456712952182D+04 E-N=-3.791830162082D+04  KE= 3.740016930540D+03
 1\1\ WCSS.PL-BEM-NODE01\SP\RB3LYP\6-311G(d,p)\C70H76N2O2S2\USER\19-Dec-20
 22\0\\# b3lyp/6-311g(d,p) scrf=(solvent=cyclohexane) em=gd3bj\\"Sketch 1"
 \\0,1\C,0,-2.88281,1.68505,-1.60059\C,0,-2.29643,0.286902,-1.4243\C,0,
 -0.941796,0.0632318,-1.70894\C,0,-0.147719,1.13026,-2.13523\C,0,-0.559
 524,2.44578,-2.28085\N,0,-1.86824,2.71393,-1.95318\C,0,0.254193,3.4722
 6,-2.69794\C,0,1.631,3.22189,-3.02437\C,0,1.96988,1.89193,-2.8417\C,0,
 1.20958,0.900386,-2.43522\C,0,1.85192,-0.337499,-2.33053\C,0,0.990915,
 -1.44858,-1.83786\C,0,-0.364564,-1.2036,-1.54859\C,0,-1.15354,-2.22635
 ,-1.02054\C,0,-0.55859,-3.44599,-0.650545\C,0,0.744106,-3.71387,-1.026
 97\C,0,1.52615,-2.71603,-1.58561\C,0,1.37363,-5.07826,-0.801819\C,0,0.
 286098,-6.15383,-0.739063\C,0,-0.663684,-5.80953,0.408241\C,0,-1.38578
 ,-4.46962,0.133181\C,0,-2.53915,-2.0399,-0.853964\C,0,-3.08858,-0.7768
 1,-1.01408\C,0,-2.73343,-4.54267,-0.593822\C,0,-3.44513,-3.1925,-0.437
 019\C,0,-4.55821,-0.51695,-0.723576\C,0,-4.73438,-0.105043,0.743999\C,
 0,-6.14034,0.421656,1.04992\C,0,-6.25555,0.973749,2.4706\C,0,-1.62559,
 -6.95104,0.791256\C,0,-0.920047,-8.17676,1.37618\O,0,2.85684,-2.99845,
 -1.8325\S,0,3.62178,1.60456,-3.2208\C,0,3.14349,-0.275784,-2.69771\C,0
 ,2.51437,4.3464,-3.48575\C,0,3.16563,5.03762,-2.27996\C,0,4.0736,6.206
 43,-2.67834\C,0,4.75139,6.86536,-1.47573\H,0,-3.36986,2.00188,-0.66512
 9\H,0,-3.63214,1.6635,-2.40577\H,0,-0.149478,4.49184,-2.77691\H,0,2.08
 542,-5.31668,-1.60838\H,0,1.95173,-5.07915,0.139665\H,0,0.75284,-7.142
 62,-0.594549\H,0,-0.267576,-6.19987,-1.69263\H,0,-0.0249075,-5.63586,1
 .29716\H,0,-1.60281,-4.03678,1.13058\H,0,-2.58189,-4.78936,-1.65694\H,
 0,-3.37871,-5.33434,-0.179303\H,0,-3.74006,-3.0698,0.620512\H,0,-4.372
 49,-3.21086,-1.02938\H,0,-5.19727,-1.3837,-0.944334\H,0,-4.94711,0.281
 426,-1.37552\H,0,-4.00647,0.685924,0.998054\H,0,-4.50756,-0.95771,1.40
 717\H,0,-6.88377,-0.379748,0.89572\H,0,-6.38668,1.22334,0.330841\H,0,-
 7.2581,1.38724,2.66305\H,0,-5.52312,1.78214,2.63182\H,0,-6.06519,0.188
 324,3.21931\H,0,-2.21611,-7.25867,-0.0895421\H,0,-2.3467,-6.57889,1.54
 126\H,0,-0.260954,-8.6499,0.632304\H,0,-1.6488,-8.93279,1.70928\H,0,-0
 .304955,-7.88976,2.24355\H,0,3.36922,-2.2869,-1.46949\H,0,3.90304,-1.0
 6087,-2.77521\H,0,1.91427,5.08334,-4.04621\H,0,3.29078,4.00996,-4.1909
 4\H,0,3.76081,4.29862,-1.71402\H,0,2.37902,5.40132,-1.59535\H,0,3.4851
 9,6.96154,-3.22882\H,0,4.84759,5.84274,-3.37644\H,0,5.35618,6.13069,-0
 .92015\H,0,4.00263,7.28045,-0.782223\H,0,5.41799,7.68677,-1.78521\C,0,
 -0.593662,1.07168,-5.82278\C,0,-0.0967271,-0.357331,-5.62793\C,0,-0.98
 8691,-1.35151,-5.2019\C,0,-2.3196,-1.01148,-4.94985\C,0,-2.88125,0.248
 367,-5.08859\N,0,-2.04315,1.24424,-5.53366\C,0,-4.19446,0.545978,-4.81
 119\C,0,-5.08996,-0.476355,-4.34803\C,0,-4.46322,-1.7067,-4.25689\C,0,
 -3.21198,-2.01106,-4.51511\C,0,-2.87621,-3.35403,-4.31917\C,0,-1.45587
 ,-3.69091,-4.60966\C,0,-0.574719,-2.68092,-5.04086\C,0,0.745654,-3.005
 82,-5.35571\C,0,1.14882,-4.35309,-5.36513\C,0,0.315672,-5.32032,-4.833
 43\C,0,-0.985707,-5.00178,-4.48399\C,0,0.774736,-6.75732,-4.65417\C,0,
 2.29912,-6.80834,-4.53165\C,0,2.90063,-6.20956,-5.80292\C,0,2.5284,-4.
 71298,-5.92698\C,0,1.67328,-1.99056,-5.65749\C,0,1.23305,-0.688254,-5.
 84506\C,0,3.50168,-3.69978,-5.31058\C,0,3.15546,-2.30174,-5.84012\C,0,
 2.19104,0.394695,-6.31338\C,0,2.2304,0.419884,-7.84593\C,0,3.16119,1.5
 0538,-8.3936\C,0,3.17622,1.54707,-9.92125\C,0,4.40869,-6.47663,-5.9697
 7\C,0,4.75103,-7.95171,-6.17841\O,0,-1.81209,-6.02356,-4.04313\S,0,-5.
 54825,-2.92869,-3.72321\C,0,-3.92398,-4.08611,-3.90185\C,0,-6.51625,-0
 .152795,-4.00377\C,0,-7.44839,-0.44999,-5.18487\C,0,-8.92672,-0.302535
 ,-4.80815\C,0,-9.86504,-0.663699,-5.95917\H,0,-0.416086,1.37989,-6.865
 22\H,0,-0.0390239,1.74257,-5.14968\H,0,-4.55911,1.57367,-4.93932\H,0,0
 .313624,-7.2077,-3.75982\H,0,0.452877,-7.37009,-5.51584\H,0,2.62122,-7
 .85177,-4.38524\H,0,2.63917,-6.24668,-3.64488\H,0,2.40495,-6.72152,-6.
 65231\H,0,2.51809,-4.49629,-7.01432\H,0,3.44433,-3.72831,-4.2101\H,0,4
 .54797,-3.92753,-5.57259\H,0,3.4201,-2.25323,-6.9118\H,0,3.78558,-1.56
 564,-5.31712\H,0,3.20784,0.250303,-5.92152\H,0,1.89192,1.38674,-5.9413
 4\H,0,1.21294,0.585524,-8.24189\H,0,2.55639,-0.562873,-8.22903\H,0,4.1
 8628,1.33445,-8.02022\H,0,2.84308,2.48875,-8.00407\H,0,3.84689,2.33667
 ,-10.2967\H,0,2.16758,1.74756,-10.3169\H,0,3.52038,0.587228,-10.3393\H
 ,0,4.96017,-6.10173,-5.08969\H,0,4.77924,-5.90665,-6.84063\H,0,4.47383
 ,-8.55773,-5.30229\H,0,5.83206,-8.08419,-6.34624\H,0,4.22181,-8.3574,-
 7.05566\H,0,-2.57112,-6.044,-4.6131\H,0,-3.99438,-5.14566,-3.63403\H,0
 ,-6.6042,0.911616,-3.73024\H,0,-6.84968,-0.708985,-3.11185\H,0,-7.2816
 8,-1.4775,-5.55162\H,0,-7.21787,0.226333,-6.027\H,0,-9.11891,0.732222,
 -4.47626\H,0,-9.13821,-0.956451,-3.94363\H,0,-9.69879,-1.70443,-6.2808
 7\H,0,-9.68911,-0.00858086,-6.82748\H,0,-10.9225,-0.563491,-5.66809\\V
 ersion=ES64L-G09RevE.01\State=1-A\HF=-3769.9277586\RMSD=2.417e-09\Dipo
 le=0.7650595,-1.868602,0.0788025\Quadrupole=10.7912509,-6.059089,-4.73
 21618,6.2532228,-7.570772,-0.3399378\PG=C01 [X(C70H76N2O2S2)]\\@


 WE LEARN WISDOM FROM FAILURE MUCH MORE THAN FROM SUCCESS.
 WE DISCOVER WHAT WILL DO BY FINDING OUT WHAT WILL NOT DO...
 AND HE WHO NEVER MADE A MISTAKE NEVER MADE A DISCOVERY
 Job cpu time:       0 days  4 hours 53 minutes 41.8 seconds.
 File lengths (MBytes):  RWF=   2061 Int=      0 D2E=      0 Chk=     88 Scr=      1
 Normal termination of Gaussian 09 at Mon Dec 19 11:13:55 2022.
