 Entering Gaussian System, Link 0=g09
 Input=aaa.gjf
 Output=aaa.log
 Initial command:
 /home/user/g09/l1.exe "/home/user/xiaoming2/Gau-206294.inp" -scrdir="/home/user/xiaoming2/"
 Entering Link 1 = /home/user/g09/l1.exe PID=    206295.
  
 Copyright (c) 1988,1990,1992,1993,1995,1998,2003,2009,2015,
            Gaussian, Inc.  All Rights Reserved.
  
 This is part of the Gaussian(R) 09 program.  It is based on
 the Gaussian(R) 03 system (copyright 2003, Gaussian, Inc.),
 the Gaussian(R) 98 system (copyright 1998, Gaussian, Inc.),
 the Gaussian(R) 94 system (copyright 1995, Gaussian, Inc.),
 the Gaussian 92(TM) system (copyright 1992, Gaussian, Inc.),
 the Gaussian 90(TM) system (copyright 1990, Gaussian, Inc.),
 the Gaussian 88(TM) system (copyright 1988, Gaussian, Inc.),
 the Gaussian 86(TM) system (copyright 1986, Carnegie Mellon
 University), and the Gaussian 82(TM) system (copyright 1983,
 Carnegie Mellon University). Gaussian is a federally registered
 trademark of Gaussian, Inc.
  
 This software contains proprietary and confidential information,
 including trade secrets, belonging to Gaussian, Inc.
  
 This software is provided under written license and may be
 used, copied, transmitted, or stored only in accord with that
 written license.
  
 The following legend is applicable only to US Government
 contracts under FAR:
  
                    RESTRICTED RIGHTS LEGEND
  
 Use, reproduction and disclosure by the US Government is
 subject to restrictions as set forth in subparagraphs (a)
 and (c) of the Commercial Computer Software - Restricted
 Rights clause in FAR 52.227-19.
  
 Gaussian, Inc.
 340 Quinnipiac St., Bldg. 40, Wallingford CT 06492
  
  
 ---------------------------------------------------------------
 Warning -- This program may not be used in any manner that
 competes with the business of Gaussian, Inc. or will provide
 assistance to any competitor of Gaussian, Inc.  The licensee
 of this program is prohibited from giving any competitor of
 Gaussian, Inc. access to this program.  By using this program,
 the user acknowledges that Gaussian, Inc. is engaged in the
 business of creating and licensing software in the field of
 computational chemistry and represents and warrants to the
 licensee that it is not a competitor of Gaussian, Inc. and that
 it will not use this program in any manner prohibited above.
 ---------------------------------------------------------------
  

 Cite this work as:
 Gaussian 09, Revision E.01,
 M. J. Frisch, G. W. Trucks, H. B. Schlegel, G. E. Scuseria, 
 M. A. Robb, J. R. Cheeseman, G. Scalmani, V. Barone, B. Mennucci, 
 G. A. Petersson, H. Nakatsuji, M. Caricato, X. Li, H. P. Hratchian, 
 A. F. Izmaylov, J. Bloino, G. Zheng, J. L. Sonnenberg, M. Hada, 
 M. Ehara, K. Toyota, R. Fukuda, J. Hasegawa, M. Ishida, T. Nakajima, 
 Y. Honda, O. Kitao, H. Nakai, T. Vreven, J. A. Montgomery, Jr., 
 J. E. Peralta, F. Ogliaro, M. Bearpark, J. J. Heyd, E. Brothers, 
 K. N. Kudin, V. N. Staroverov, T. Keith, R. Kobayashi, J. Normand, 
 K. Raghavachari, A. Rendell, J. C. Burant, S. S. Iyengar, J. Tomasi, 
 M. Cossi, N. Rega, J. M. Millam, M. Klene, J. E. Knox, J. B. Cross, 
 V. Bakken, C. Adamo, J. Jaramillo, R. Gomperts, R. E. Stratmann, 
 O. Yazyev, A. J. Austin, R. Cammi, C. Pomelli, J. W. Ochterski, 
 R. L. Martin, K. Morokuma, V. G. Zakrzewski, G. A. Voth, 
 P. Salvador, J. J. Dannenberg, S. Dapprich, A. D. Daniels, 
 O. Farkas, J. B. Foresman, J. V. Ortiz, J. Cioslowski, 
 and D. J. Fox, Gaussian, Inc., Wallingford CT, 2013.
 
 ******************************************
 Gaussian 09:  ES64L-G09RevE.01 30-Nov-2015
                25-Nov-2022 
 ******************************************
 %chk=aaa.chk
 %mem=10GB
 %nprocshared=10
 Will use up to   10 processors via shared memory.
 -----------------------------------------------------------
 # b3lyp/6-311g(d,p) scrf=(smd,solvent=cyclohexane) em=gd3bj
 -----------------------------------------------------------
 1/38=1/1;
 2/12=2,17=6,18=5,40=1/2;
 3/5=4,6=6,7=101,11=2,16=1,25=1,30=1,70=32201,72=17,74=-5,124=41/1,2,3;
 4//1;
 5/5=2,38=5,53=17/2;
 6/7=2,8=2,9=2,10=2,28=1/1;
 99/5=1,9=1/99;
 ---
 as2
 ---
 Symbolic Z-matrix:
 Charge =  0 Multiplicity = 2
 C                     0.67976   3.35196  -0.64668 
 C                    -0.22829   2.13626  -0.48759 
 C                     0.34417   0.86831  -0.31029 
 C                     1.73532   0.73874  -0.32872 
 C                     2.6489    1.77852  -0.41029 
 N                     2.1169    3.04791  -0.40216 
 C                     4.0108    1.61028  -0.49125 
 C                     4.57915   0.29006  -0.52398 
 C                     3.60602  -0.69222  -0.4404 
 C                     2.30417  -0.55035  -0.33452 
 C                     1.5767   -1.74378  -0.27302 
 C                     0.10167  -1.57176  -0.1515 
 C                    -0.45237  -0.27831  -0.19622 
 C                    -1.83773  -0.1225   -0.17296 
 C                    -2.65854  -1.22941   0.10457 
 C                    -2.1186   -2.50256   0.09538 
 C                    -0.74578  -2.67551  -0.00689 
 C                    -2.9922   -3.74106   0.22502 
 C                    -4.42125  -3.44125  -0.23625 
 C                    -4.96428  -2.28413   0.6026 
 C                    -4.1518   -0.99543   0.34144 
 C                    -2.4153    1.12537  -0.48245 
 C                    -1.60773   2.24854  -0.59593 
 C                    -4.60483  -0.0965   -0.81682 
 C                    -3.92385   1.2718   -0.66414 
 C                    -2.2151    3.6218   -0.83388 
 C                    -2.59976   4.26839   0.50351 
 C                    -3.23015   5.65361   0.32377 
 C                    -3.64479   6.29771   1.64689 
 C                    -6.48551  -2.07441   0.47788 
 C                    -7.32034  -3.22872   1.03934 
 O                    -0.24748  -3.96166   0.06285 
 S                     4.29394  -2.26695  -0.4968 
 C                     2.36634  -2.8284   -0.34782 
 C                     6.06689   0.1037   -0.63988 
 C                     6.69377  -0.05304   0.75044 
 C                     8.217    -0.21614   0.70307 
 C                     8.83357  -0.36014   2.0948 
 H                     0.3727    4.13899   0.0603 
 H                     0.58628   3.73241  -1.67671 
 H                     4.66556   2.49107  -0.54738 
 H                    -2.57882  -4.57328  -0.36823 
 H                    -3.01065  -4.08219   1.27615 
 H                    -5.04194  -4.34581  -0.12198 
 H                    -4.43704  -3.18019  -1.30847 
 H                    -4.7773   -2.55228   1.66178 
 H                    -4.26132  -0.38308   1.25925 
 H                    -4.3518   -0.5507   -1.79049 
 H                    -5.69778   0.04919  -0.81664 
 H                    -4.35952   1.78689   0.2106 
 H                    -4.1624    1.88039  -1.55067 
 H                    -3.09699   3.57521  -1.49016 
 H                    -1.51607   4.28453  -1.3676 
 H                    -1.70583   4.35837   1.14564 
 H                    -3.30844   3.61876   1.04572 
 H                    -4.11556   5.56897  -0.33132 
 H                    -2.51568   6.31536  -0.19711 
 H                    -4.08931   7.29251   1.48371 
 H                    -2.77731   6.42398   2.31469 
 H                    -4.39042   5.67842   2.17096 
 H                    -6.75949  -1.91446  -0.57969 
 H                    -6.7658   -1.15212   1.01838 
 H                    -7.14367  -4.16149   0.48212 
 H                    -8.39649  -3.00118   0.97773 
 H                    -7.07492  -3.41249   2.09763 
 H                     0.53058  -3.93703   0.60492 
 H                     2.11791  -3.89461  -0.377 
 H                     6.51048   0.98237  -1.13794 
 H                     6.32869  -0.75723  -1.27684 
 H                     6.25491  -0.92529   1.26594 
 H                     6.44728   0.83126   1.36485 
 H                     8.66274   0.65702   0.19426 
 H                     8.47119  -1.10072   0.09308 
 H                     8.43468  -1.24841   2.61051 
 H                     8.60484   0.52238   2.71385 
 H                     9.92912  -0.46284   2.04378 
 
 Stoichiometry    C35H38NOS(2)
 Framework group  C1[X(C35H38NOS)]
 Deg. of freedom   222
 Full point group                 C1      NOp   1
 Largest Abelian subgroup         C1      NOp   1
 Largest concise Abelian subgroup C1      NOp   1
                         Standard orientation:                         
 ---------------------------------------------------------------------
 Center     Atomic      Atomic             Coordinates (Angstroms)
 Number     Number       Type             X           Y           Z
 ---------------------------------------------------------------------
      1          6           0        0.679759    3.351961   -0.646683
      2          6           0       -0.228292    2.136255   -0.487585
      3          6           0        0.344165    0.868307   -0.310288
      4          6           0        1.735324    0.738739   -0.328715
      5          6           0        2.648895    1.778523   -0.410288
      6          7           0        2.116896    3.047909   -0.402159
      7          6           0        4.010795    1.610280   -0.491254
      8          6           0        4.579150    0.290055   -0.523977
      9          6           0        3.606017   -0.692216   -0.440402
     10          6           0        2.304171   -0.550350   -0.334523
     11          6           0        1.576702   -1.743776   -0.273017
     12          6           0        0.101670   -1.571759   -0.151505
     13          6           0       -0.452375   -0.278314   -0.196218
     14          6           0       -1.837733   -0.122499   -0.172958
     15          6           0       -2.658541   -1.229411    0.104567
     16          6           0       -2.118595   -2.502557    0.095384
     17          6           0       -0.745778   -2.675513   -0.006891
     18          6           0       -2.992198   -3.741060    0.225019
     19          6           0       -4.421252   -3.441255   -0.236253
     20          6           0       -4.964277   -2.284125    0.602597
     21          6           0       -4.151800   -0.995434    0.341441
     22          6           0       -2.415296    1.125374   -0.482445
     23          6           0       -1.607734    2.248545   -0.595927
     24          6           0       -4.604831   -0.096503   -0.816822
     25          6           0       -3.923852    1.271805   -0.664139
     26          6           0       -2.215098    3.621796   -0.833878
     27          6           0       -2.599764    4.268392    0.503511
     28          6           0       -3.230155    5.653608    0.323774
     29          6           0       -3.644786    6.297707    1.646894
     30          6           0       -6.485507   -2.074413    0.477879
     31          6           0       -7.320341   -3.228722    1.039337
     32          8           0       -0.247481   -3.961664    0.062853
     33         16           0        4.293943   -2.266952   -0.496802
     34          6           0        2.366339   -2.828397   -0.347817
     35          6           0        6.066889    0.103695   -0.639885
     36          6           0        6.693775   -0.053041    0.750439
     37          6           0        8.216996   -0.216142    0.703071
     38          6           0        8.833565   -0.360141    2.094803
     39          1           0        0.372703    4.138993    0.060304
     40          1           0        0.586281    3.732414   -1.676713
     41          1           0        4.665560    2.491070   -0.547376
     42          1           0       -2.578822   -4.573275   -0.368227
     43          1           0       -3.010651   -4.082185    1.276146
     44          1           0       -5.041936   -4.345808   -0.121981
     45          1           0       -4.437036   -3.180185   -1.308472
     46          1           0       -4.777301   -2.552280    1.661780
     47          1           0       -4.261324   -0.383081    1.259252
     48          1           0       -4.351805   -0.550700   -1.790492
     49          1           0       -5.697781    0.049194   -0.816640
     50          1           0       -4.359517    1.786890    0.210597
     51          1           0       -4.162397    1.880392   -1.550668
     52          1           0       -3.096989    3.575212   -1.490163
     53          1           0       -1.516069    4.284532   -1.367596
     54          1           0       -1.705831    4.358370    1.145638
     55          1           0       -3.308442    3.618756    1.045719
     56          1           0       -4.115556    5.568971   -0.331316
     57          1           0       -2.515680    6.315356   -0.197108
     58          1           0       -4.089306    7.292512    1.483710
     59          1           0       -2.777311    6.423979    2.314692
     60          1           0       -4.390418    5.678423    2.170957
     61          1           0       -6.759495   -1.914459   -0.579690
     62          1           0       -6.765802   -1.152124    1.018377
     63          1           0       -7.143669   -4.161486    0.482117
     64          1           0       -8.396493   -3.001182    0.977731
     65          1           0       -7.074919   -3.412495    2.097630
     66          1           0        0.530581   -3.937026    0.604915
     67          1           0        2.117914   -3.894610   -0.376996
     68          1           0        6.510476    0.982370   -1.137938
     69          1           0        6.328692   -0.757232   -1.276837
     70          1           0        6.254915   -0.925286    1.265945
     71          1           0        6.447284    0.831260    1.364852
     72          1           0        8.662743    0.657019    0.194262
     73          1           0        8.471192   -1.100725    0.093080
     74          1           0        8.434676   -1.248412    2.610510
     75          1           0        8.604843    0.522383    2.713852
     76          1           0        9.929121   -0.462838    2.043785
 ---------------------------------------------------------------------
 Rotational constants (GHZ):      0.1332765      0.0573584      0.0418486
 Standard basis: 6-311G(d,p) (5D, 7F)
 There are   958 symmetry adapted cartesian basis functions of A   symmetry.
 There are   920 symmetry adapted basis functions of A   symmetry.
   920 basis functions,  1534 primitive gaussians,   958 cartesian basis functions
   140 alpha electrons      139 beta electrons
       nuclear repulsion energy      4343.6991038947 Hartrees.
 NAtoms=   76 NActive=   76 NUniq=   76 SFac= 1.00D+00 NAtFMM=   60 NAOKFM=T Big=T
 Integral buffers will be    131072 words long.
 Raffenetti 2 integral format.
 Two-electron integral symmetry is turned on.
 Nuclear repulsion after empirical dispersion term =     4343.5086771188 Hartrees.
 ------------------------------------------------------------------------------
 Polarizable Continuum Model (PCM)
 =================================
 Model                : PCM (using non-symmetric T matrix).
 Atomic radii         : SMD-Coulomb.
 Polarization charges : Total charges.
 Charge compensation  : None.
 Solution method      : On-the-fly selection.
 Cavity type          : VdW (van der Waals Surface) (Alpha=1.000).
 Cavity algorithm     : GePol (No added spheres)
                        Default sphere list used, NSphG=   76.
                        Lebedev-Laikov grids with approx.  5.0 points / Ang**2.
                        Smoothing algorithm: York/Karplus (Gamma=1.0000).
                        Polarization charges: spherical gaussians, with
                                              point-specific exponents (IZeta= 3).
                        Self-potential: point-specific (ISelfS= 7).
                        Self-field    : sphere-specific E.n sum rule (ISelfD= 2).
 Solvent              : CycloHexane, Eps=   2.016500 Eps(inf)=   2.035188
 ------------------------------------------------------------------------------
 ------------------------------------------------------------------------------
 Atomic radii for non-electrostatic terms: SMD-CDS.
 ------------------------------------------------------------------------------
 Nuclear repulsion after PCM non-electrostatic terms =     4343.4863239080 Hartrees.
 One-electron integrals computed using PRISM.
 NBasis=   920 RedAO= T EigKep=  2.15D-05  NBF=   920
 NBsUse=   920 1.00D-06 EigRej= -1.00D+00 NBFU=   920
 ExpMin= 7.71D-02 ExpMax= 9.34D+04 ExpMxC= 3.17D+03 IAcc=2 IRadAn=         4 AccDes= 0.00D+00
 Harris functional with IExCor=  402 and IRadAn=       4 diagonalized for initial guess.
 HarFok:  IExCor=  402 AccDes= 0.00D+00 IRadAn=         4 IDoV= 1 UseB2=F ITyADJ=14
 ICtDFT=  3500011 ScaDFX=  1.000000  1.000000  1.000000  1.000000
 FoFCou: FMM=F IPFlag=           0 FMFlag=      100000 FMFlg1=        2001
         NFxFlg=           0 DoJE=T BraDBF=F KetDBF=T FulRan=T
         wScrn=  0.000000 ICntrl=     500 IOpCl=  0 I1Cent=   200000004 NGrid=           0
         NMat0=    1 NMatS0=      1 NMatT0=    0 NMatD0=    1 NMtDS0=    0 NMtDT0=    0
 Petite list used in FoFCou.
 Initial guess <Sx>= 0.0000 <Sy>= 0.0000 <Sz>= 0.5000 <S**2>= 0.7500 S= 0.5000
 Requested convergence on RMS density matrix=1.00D-08 within 128 cycles.
 Requested convergence on MAX density matrix=1.00D-06.
 Requested convergence on             energy=1.00D-06.
 No special actions if energy rises.
 Inv3:  Mode=1 IEnd=    78889152.
 Iteration    1 A*A^-1 deviation from unit magnitude is 5.11D-15 for   5109.
 Iteration    1 A*A^-1 deviation from orthogonality  is 2.99D-15 for   3668    681.
 Iteration    1 A^-1*A deviation from unit magnitude is 5.22D-15 for   5115.
 Iteration    1 A^-1*A deviation from orthogonality  is 7.03D-15 for   4489   4450.
 Restarting incremental Fock formation.
 Error on total polarization charges =  0.04343
 SCF Done:  E(UB3LYP) =  -1885.35413148     A.U. after   23 cycles
            NFock= 23  Conv=0.83D-08     -V/T= 2.0037
 <Sx>= 0.0000 <Sy>= 0.0000 <Sz>= 0.5000 <S**2>= 0.7842 S= 0.5170
 <L.S>= 0.000000000000E+00
 SMD-CDS (non-electrostatic) energy       (kcal/mol) =     -14.03
 (included in total energy above)
 Annihilation of the first spin contaminant:
 S**2 before annihilation     0.7842,   after     0.7508

 **********************************************************************

            Population analysis using the SCF density.

 **********************************************************************

 Orbital symmetries:
 Alpha Orbitals:
       Occupied  (A) (A) (A) (A) (A) (A) (A) (A) (A) (A) (A) (A)
                 (A) (A) (A) (A) (A) (A) (A) (A) (A) (A) (A) (A)
                 (A) (A) (A) (A) (A) (A) (A) (A) (A) (A) (A) (A)
                 (A) (A) (A) (A) (A) (A) (A) (A) (A) (A) (A) (A)
                 (A) (A) (A) (A) (A) (A) (A) (A) (A) (A) (A) (A)
                 (A) (A) (A) (A) (A) (A) (A) (A) (A) (A) (A) (A)
                 (A) (A) (A) (A) (A) (A) (A) (A) (A) (A) (A) (A)
                 (A) (A) (A) (A) (A) (A) (A) (A) (A) (A) (A) (A)
                 (A) (A) (A) (A) (A) (A) (A) (A) (A) (A) (A) (A)
                 (A) (A) (A) (A) (A) (A) (A) (A) (A) (A) (A) (A)
                 (A) (A) (A) (A) (A) (A) (A) (A) (A) (A) (A) (A)
                 (A) (A) (A) (A) (A) (A) (A) (A)
       Virtual   (A) (A) (A) (A) (A) (A) (A) (A) (A) (A) (A) (A)
                 (A) (A) (A) (A) (A) (A) (A) (A) (A) (A) (A) (A)
                 (A) (A) (A) (A) (A) (A) (A) (A) (A) (A) (A) (A)
                 (A) (A) (A) (A) (A) (A) (A) (A) (A) (A) (A) (A)
                 (A) (A) (A) (A) (A) (A) (A) (A) (A) (A) (A) (A)
                 (A) (A) (A) (A) (A) (A) (A) (A) (A) (A) (A) (A)
                 (A) (A) (A) (A) (A) (A) (A) (A) (A) (A) (A) (A)
                 (A) (A) (A) (A) (A) (A) (A) (A) (A) (A) (A) (A)
                 (A) (A) (A) (A) (A) (A) (A) (A) (A) (A) (A) (A)
                 (A) (A) (A) (A) (A) (A) (A) (A) (A) (A) (A) (A)
                 (A) (A) (A) (A) (A) (A) (A) (A) (A) (A) (A) (A)
                 (A) (A) (A) (A) (A) (A) (A) (A) (A) (A) (A) (A)
                 (A) (A) (A) (A) (A) (A) (A) (A) (A) (A) (A) (A)
                 (A) (A) (A) (A) (A) (A) (A) (A) (A) (A) (A) (A)
                 (A) (A) (A) (A) (A) (A) (A) (A) (A) (A) (A) (A)
                 (A) (A) (A) (A) (A) (A) (A) (A) (A) (A) (A) (A)
                 (A) (A) (A) (A) (A) (A) (A) (A) (A) (A) (A) (A)
                 (A) (A) (A) (A) (A) (A) (A) (A) (A) (A) (A) (A)
                 (A) (A) (A) (A) (A) (A) (A) (A) (A) (A) (A) (A)
                 (A) (A) (A) (A) (A) (A) (A) (A) (A) (A) (A) (A)
                 (A) (A) (A) (A) (A) (A) (A) (A) (A) (A) (A) (A)
                 (A) (A) (A) (A) (A) (A) (A) (A) (A) (A) (A) (A)
                 (A) (A) (A) (A) (A) (A) (A) (A) (A) (A) (A) (A)
                 (A) (A) (A) (A) (A) (A) (A) (A) (A) (A) (A) (A)
                 (A) (A) (A) (A) (A) (A) (A) (A) (A) (A) (A) (A)
                 (A) (A) (A) (A) (A) (A) (A) (A) (A) (A) (A) (A)
                 (A) (A) (A) (A) (A) (A) (A) (A) (A) (A) (A) (A)
                 (A) (A) (A) (A) (A) (A) (A) (A) (A) (A) (A) (A)
                 (A) (A) (A) (A) (A) (A) (A) (A) (A) (A) (A) (A)
                 (A) (A) (A) (A) (A) (A) (A) (A) (A) (A) (A) (A)
                 (A) (A) (A) (A) (A) (A) (A) (A) (A) (A) (A) (A)
                 (A) (A) (A) (A) (A) (A) (A) (A) (A) (A) (A) (A)
                 (A) (A) (A) (A) (A) (A) (A) (A) (A) (A) (A) (A)
                 (A) (A) (A) (A) (A) (A) (A) (A) (A) (A) (A) (A)
                 (A) (A) (A) (A) (A) (A) (A) (A) (A) (A) (A) (A)
                 (A) (A) (A) (A) (A) (A) (A) (A) (A) (A) (A) (A)
                 (A) (A) (A) (A) (A) (A) (A) (A) (A) (A) (A) (A)
                 (A) (A) (A) (A) (A) (A) (A) (A) (A) (A) (A) (A)
                 (A) (A) (A) (A) (A) (A) (A) (A) (A) (A) (A) (A)
                 (A) (A) (A) (A) (A) (A) (A) (A) (A) (A) (A) (A)
                 (A) (A) (A) (A) (A) (A) (A) (A) (A) (A) (A) (A)
                 (A) (A) (A) (A) (A) (A) (A) (A) (A) (A) (A) (A)
                 (A) (A) (A) (A) (A) (A) (A) (A) (A) (A) (A) (A)
                 (A) (A) (A) (A) (A) (A) (A) (A) (A) (A) (A) (A)
                 (A) (A) (A) (A) (A) (A) (A) (A) (A) (A) (A) (A)
                 (A) (A) (A) (A) (A) (A) (A) (A) (A) (A) (A) (A)
                 (A) (A) (A) (A) (A) (A) (A) (A) (A) (A) (A) (A)
                 (A) (A) (A) (A) (A) (A) (A) (A) (A) (A) (A) (A)
                 (A) (A) (A) (A) (A) (A) (A) (A) (A) (A) (A) (A)
                 (A) (A) (A) (A) (A) (A) (A) (A) (A) (A) (A) (A)
                 (A) (A) (A) (A) (A) (A) (A) (A) (A) (A) (A) (A)
                 (A) (A) (A) (A) (A) (A) (A) (A) (A) (A) (A) (A)
                 (A) (A) (A) (A) (A) (A) (A) (A) (A) (A) (A) (A)
                 (A) (A) (A) (A) (A) (A) (A) (A) (A) (A) (A) (A)
                 (A) (A) (A) (A) (A) (A) (A) (A) (A) (A) (A) (A)
                 (A) (A) (A) (A) (A) (A) (A) (A) (A) (A) (A) (A)
                 (A) (A) (A) (A) (A) (A) (A) (A) (A) (A) (A) (A)
                 (A) (A) (A) (A) (A) (A) (A) (A) (A) (A) (A) (A)
                 (A) (A) (A) (A) (A) (A) (A) (A) (A) (A) (A) (A)
                 (A) (A) (A) (A) (A) (A) (A) (A) (A) (A) (A) (A)
                 (A) (A) (A) (A) (A) (A) (A) (A) (A) (A) (A) (A)
                 (A) (A) (A) (A) (A) (A) (A) (A) (A) (A) (A) (A)
                 (A) (A) (A) (A) (A) (A) (A) (A) (A) (A) (A) (A)
                 (A) (A) (A) (A) (A) (A) (A) (A) (A) (A) (A) (A)
                 (A) (A) (A) (A) (A) (A) (A) (A) (A) (A) (A) (A)
 Beta  Orbitals:
       Occupied  (A) (A) (A) (A) (A) (A) (A) (A) (A) (A) (A) (A)
                 (A) (A) (A) (A) (A) (A) (A) (A) (A) (A) (A) (A)
                 (A) (A) (A) (A) (A) (A) (A) (A) (A) (A) (A) (A)
                 (A) (A) (A) (A) (A) (A) (A) (A) (A) (A) (A) (A)
                 (A) (A) (A) (A) (A) (A) (A) (A) (A) (A) (A) (A)
                 (A) (A) (A) (A) (A) (A) (A) (A) (A) (A) (A) (A)
                 (A) (A) (A) (A) (A) (A) (A) (A) (A) (A) (A) (A)
                 (A) (A) (A) (A) (A) (A) (A) (A) (A) (A) (A) (A)
                 (A) (A) (A) (A) (A) (A) (A) (A) (A) (A) (A) (A)
                 (A) (A) (A) (A) (A) (A) (A) (A) (A) (A) (A) (A)
                 (A) (A) (A) (A) (A) (A) (A) (A) (A) (A) (A) (A)
                 (A) (A) (A) (A) (A) (A) (A)
       Virtual   (A) (A) (A) (A) (A) (A) (A) (A) (A) (A) (A) (A)
                 (A) (A) (A) (A) (A) (A) (A) (A) (A) (A) (A) (A)
                 (A) (A) (A) (A) (A) (A) (A) (A) (A) (A) (A) (A)
                 (A) (A) (A) (A) (A) (A) (A) (A) (A) (A) (A) (A)
                 (A) (A) (A) (A) (A) (A) (A) (A) (A) (A) (A) (A)
                 (A) (A) (A) (A) (A) (A) (A) (A) (A) (A) (A) (A)
                 (A) (A) (A) (A) (A) (A) (A) (A) (A) (A) (A) (A)
                 (A) (A) (A) (A) (A) (A) (A) (A) (A) (A) (A) (A)
                 (A) (A) (A) (A) (A) (A) (A) (A) (A) (A) (A) (A)
                 (A) (A) (A) (A) (A) (A) (A) (A) (A) (A) (A) (A)
                 (A) (A) (A) (A) (A) (A) (A) (A) (A) (A) (A) (A)
                 (A) (A) (A) (A) (A) (A) (A) (A) (A) (A) (A) (A)
                 (A) (A) (A) (A) (A) (A) (A) (A) (A) (A) (A) (A)
                 (A) (A) (A) (A) (A) (A) (A) (A) (A) (A) (A) (A)
                 (A) (A) (A) (A) (A) (A) (A) (A) (A) (A) (A) (A)
                 (A) (A) (A) (A) (A) (A) (A) (A) (A) (A) (A) (A)
                 (A) (A) (A) (A) (A) (A) (A) (A) (A) (A) (A) (A)
                 (A) (A) (A) (A) (A) (A) (A) (A) (A) (A) (A) (A)
                 (A) (A) (A) (A) (A) (A) (A) (A) (A) (A) (A) (A)
                 (A) (A) (A) (A) (A) (A) (A) (A) (A) (A) (A) (A)
                 (A) (A) (A) (A) (A) (A) (A) (A) (A) (A) (A) (A)
                 (A) (A) (A) (A) (A) (A) (A) (A) (A) (A) (A) (A)
                 (A) (A) (A) (A) (A) (A) (A) (A) (A) (A) (A) (A)
                 (A) (A) (A) (A) (A) (A) (A) (A) (A) (A) (A) (A)
                 (A) (A) (A) (A) (A) (A) (A) (A) (A) (A) (A) (A)
                 (A) (A) (A) (A) (A) (A) (A) (A) (A) (A) (A) (A)
                 (A) (A) (A) (A) (A) (A) (A) (A) (A) (A) (A) (A)
                 (A) (A) (A) (A) (A) (A) (A) (A) (A) (A) (A) (A)
                 (A) (A) (A) (A) (A) (A) (A) (A) (A) (A) (A) (A)
                 (A) (A) (A) (A) (A) (A) (A) (A) (A) (A) (A) (A)
                 (A) (A) (A) (A) (A) (A) (A) (A) (A) (A) (A) (A)
                 (A) (A) (A) (A) (A) (A) (A) (A) (A) (A) (A) (A)
                 (A) (A) (A) (A) (A) (A) (A) (A) (A) (A) (A) (A)
                 (A) (A) (A) (A) (A) (A) (A) (A) (A) (A) (A) (A)
                 (A) (A) (A) (A) (A) (A) (A) (A) (A) (A) (A) (A)
                 (A) (A) (A) (A) (A) (A) (A) (A) (A) (A) (A) (A)
                 (A) (A) (A) (A) (A) (A) (A) (A) (A) (A) (A) (A)
                 (A) (A) (A) (A) (A) (A) (A) (A) (A) (A) (A) (A)
                 (A) (A) (A) (A) (A) (A) (A) (A) (A) (A) (A) (A)
                 (A) (A) (A) (A) (A) (A) (A) (A) (A) (A) (A) (A)
                 (A) (A) (A) (A) (A) (A) (A) (A) (A) (A) (A) (A)
                 (A) (A) (A) (A) (A) (A) (A) (A) (A) (A) (A) (A)
                 (A) (A) (A) (A) (A) (A) (A) (A) (A) (A) (A) (A)
                 (A) (A) (A) (A) (A) (A) (A) (A) (A) (A) (A) (A)
                 (A) (A) (A) (A) (A) (A) (A) (A) (A) (A) (A) (A)
                 (A) (A) (A) (A) (A) (A) (A) (A) (A) (A) (A) (A)
                 (A) (A) (A) (A) (A) (A) (A) (A) (A) (A) (A) (A)
                 (A) (A) (A) (A) (A) (A) (A) (A) (A) (A) (A) (A)
                 (A) (A) (A) (A) (A) (A) (A) (A) (A) (A) (A) (A)
                 (A) (A) (A) (A) (A) (A) (A) (A) (A) (A) (A) (A)
                 (A) (A) (A) (A) (A) (A) (A) (A) (A) (A) (A) (A)
                 (A) (A) (A) (A) (A) (A) (A) (A) (A) (A) (A) (A)
                 (A) (A) (A) (A) (A) (A) (A) (A) (A) (A) (A) (A)
                 (A) (A) (A) (A) (A) (A) (A) (A) (A) (A) (A) (A)
                 (A) (A) (A) (A) (A) (A) (A) (A) (A) (A) (A) (A)
                 (A) (A) (A) (A) (A) (A) (A) (A) (A) (A) (A) (A)
                 (A) (A) (A) (A) (A) (A) (A) (A) (A) (A) (A) (A)
                 (A) (A) (A) (A) (A) (A) (A) (A) (A) (A) (A) (A)
                 (A) (A) (A) (A) (A) (A) (A) (A) (A) (A) (A) (A)
                 (A) (A) (A) (A) (A) (A) (A) (A) (A) (A) (A) (A)
                 (A) (A) (A) (A) (A) (A) (A) (A) (A) (A) (A) (A)
                 (A) (A) (A) (A) (A) (A) (A) (A) (A) (A) (A) (A)
                 (A) (A) (A) (A) (A) (A) (A) (A) (A) (A) (A) (A)
                 (A) (A) (A) (A) (A) (A) (A) (A) (A) (A) (A) (A)
                 (A) (A) (A) (A) (A) (A) (A) (A) (A) (A) (A) (A)
                 (A)
 The electronic state is 2-A.
 Alpha  occ. eigenvalues --  -88.86887 -19.15039 -14.29599 -10.23574 -10.21080
 Alpha  occ. eigenvalues --  -10.20286 -10.19588 -10.19517 -10.19443 -10.18883
 Alpha  occ. eigenvalues --  -10.18750 -10.18255 -10.18243 -10.18105 -10.18048
 Alpha  occ. eigenvalues --  -10.17936 -10.17865 -10.17699 -10.17684 -10.17623
 Alpha  occ. eigenvalues --  -10.17497 -10.17448 -10.17330 -10.17246 -10.17074
 Alpha  occ. eigenvalues --  -10.17006 -10.16867 -10.16813 -10.16670 -10.16558
 Alpha  occ. eigenvalues --  -10.16498 -10.16437 -10.16408 -10.16261 -10.16157
 Alpha  occ. eigenvalues --  -10.15767 -10.15677 -10.15483  -7.95377  -5.91701
 Alpha  occ. eigenvalues --   -5.91377  -5.90903  -1.06812  -0.93241  -0.89703
 Alpha  occ. eigenvalues --   -0.89620  -0.85509  -0.84401  -0.82344  -0.81163
 Alpha  occ. eigenvalues --   -0.80654  -0.79786  -0.78989  -0.77229  -0.76402
 Alpha  occ. eigenvalues --   -0.75220  -0.74165  -0.73221  -0.72221  -0.71679
 Alpha  occ. eigenvalues --   -0.71355  -0.68836  -0.65834  -0.65320  -0.65043
 Alpha  occ. eigenvalues --   -0.63485  -0.62523  -0.62269  -0.61333  -0.60611
 Alpha  occ. eigenvalues --   -0.59360  -0.58332  -0.57819  -0.57666  -0.55391
 Alpha  occ. eigenvalues --   -0.54711  -0.53460  -0.52395  -0.51608  -0.50842
 Alpha  occ. eigenvalues --   -0.49698  -0.48584  -0.47724  -0.46800  -0.46419
 Alpha  occ. eigenvalues --   -0.46312  -0.45625  -0.45257  -0.45111  -0.44242
 Alpha  occ. eigenvalues --   -0.43999  -0.43695  -0.43445  -0.43122  -0.42724
 Alpha  occ. eigenvalues --   -0.42424  -0.42001  -0.41730  -0.41364  -0.41163
 Alpha  occ. eigenvalues --   -0.41018  -0.40486  -0.40022  -0.39521  -0.39410
 Alpha  occ. eigenvalues --   -0.38508  -0.38421  -0.38118  -0.37526  -0.36927
 Alpha  occ. eigenvalues --   -0.36530  -0.36310  -0.36063  -0.35816  -0.35332
 Alpha  occ. eigenvalues --   -0.35096  -0.35018  -0.34698  -0.34316  -0.34161
 Alpha  occ. eigenvalues --   -0.33819  -0.33597  -0.33421  -0.32878  -0.32555
 Alpha  occ. eigenvalues --   -0.32395  -0.32277  -0.31679  -0.31449  -0.30777
 Alpha  occ. eigenvalues --   -0.30472  -0.29890  -0.29477  -0.27083  -0.25371
 Alpha  occ. eigenvalues --   -0.24723  -0.24087  -0.23478  -0.20617  -0.17245
 Alpha virt. eigenvalues --   -0.06926  -0.02571  -0.01993  -0.01547  -0.00601
 Alpha virt. eigenvalues --    0.03241   0.04313   0.04478   0.04877   0.04943
 Alpha virt. eigenvalues --    0.05350   0.05567   0.05949   0.06180   0.06378
 Alpha virt. eigenvalues --    0.06967   0.07343   0.07513   0.08150   0.08532
 Alpha virt. eigenvalues --    0.09023   0.09408   0.09526   0.10065   0.10498
 Alpha virt. eigenvalues --    0.10723   0.11134   0.11603   0.12115   0.12219
 Alpha virt. eigenvalues --    0.12291   0.12661   0.12920   0.13213   0.13452
 Alpha virt. eigenvalues --    0.13861   0.14125   0.14400   0.14713   0.15122
 Alpha virt. eigenvalues --    0.15525   0.16092   0.16252   0.16520   0.16650
 Alpha virt. eigenvalues --    0.17166   0.17449   0.17949   0.18320   0.18765
 Alpha virt. eigenvalues --    0.19173   0.19313   0.20128   0.20437   0.20862
 Alpha virt. eigenvalues --    0.20884   0.21510   0.21826   0.21999   0.22577
 Alpha virt. eigenvalues --    0.23105   0.23257   0.23659   0.23700   0.23960
 Alpha virt. eigenvalues --    0.24557   0.25202   0.25508   0.25807   0.26593
 Alpha virt. eigenvalues --    0.26968   0.27099   0.27599   0.28176   0.28287
 Alpha virt. eigenvalues --    0.28572   0.29175   0.29678   0.30304   0.30311
 Alpha virt. eigenvalues --    0.30583   0.30811   0.31067   0.31697   0.31784
 Alpha virt. eigenvalues --    0.32772   0.33421   0.33510   0.33819   0.33972
 Alpha virt. eigenvalues --    0.34276   0.34824   0.34995   0.35583   0.35782
 Alpha virt. eigenvalues --    0.36222   0.36562   0.36798   0.36998   0.37446
 Alpha virt. eigenvalues --    0.38201   0.38326   0.39000   0.39021   0.39421
 Alpha virt. eigenvalues --    0.39693   0.40283   0.40999   0.41382   0.41501
 Alpha virt. eigenvalues --    0.41869   0.42307   0.42381   0.42497   0.43034
 Alpha virt. eigenvalues --    0.43427   0.43640   0.44489   0.44879   0.45021
 Alpha virt. eigenvalues --    0.45308   0.46068   0.46231   0.46701   0.47144
 Alpha virt. eigenvalues --    0.47616   0.48097   0.48227   0.48598   0.48949
 Alpha virt. eigenvalues --    0.49429   0.49732   0.49966   0.50796   0.50867
 Alpha virt. eigenvalues --    0.51207   0.51960   0.52223   0.52729   0.52947
 Alpha virt. eigenvalues --    0.53137   0.53609   0.53824   0.54298   0.54622
 Alpha virt. eigenvalues --    0.54889   0.55148   0.55303   0.55460   0.55830
 Alpha virt. eigenvalues --    0.55963   0.56683   0.56765   0.56918   0.57236
 Alpha virt. eigenvalues --    0.57367   0.57405   0.57891   0.57929   0.58272
 Alpha virt. eigenvalues --    0.58652   0.59011   0.59064   0.59217   0.59483
 Alpha virt. eigenvalues --    0.59572   0.59775   0.59934   0.60266   0.60402
 Alpha virt. eigenvalues --    0.60592   0.60642   0.60938   0.61221   0.61518
 Alpha virt. eigenvalues --    0.61556   0.61853   0.62072   0.62281   0.62402
 Alpha virt. eigenvalues --    0.63131   0.63185   0.63414   0.63590   0.63784
 Alpha virt. eigenvalues --    0.63885   0.64139   0.64554   0.64895   0.65220
 Alpha virt. eigenvalues --    0.65384   0.66008   0.66259   0.66930   0.67196
 Alpha virt. eigenvalues --    0.67501   0.67857   0.68367   0.68693   0.69141
 Alpha virt. eigenvalues --    0.69638   0.69865   0.70315   0.70628   0.70646
 Alpha virt. eigenvalues --    0.71473   0.71977   0.72231   0.72504   0.73027
 Alpha virt. eigenvalues --    0.73806   0.74324   0.74708   0.75309   0.75705
 Alpha virt. eigenvalues --    0.77136   0.77671   0.78714   0.79163   0.80113
 Alpha virt. eigenvalues --    0.80521   0.81228   0.81930   0.82297   0.83142
 Alpha virt. eigenvalues --    0.83448   0.84306   0.84429   0.84652   0.85383
 Alpha virt. eigenvalues --    0.85816   0.87281   0.87677   0.87931   0.88308
 Alpha virt. eigenvalues --    0.89508   0.89611   0.90261   0.90581   0.90856
 Alpha virt. eigenvalues --    0.91316   0.91626   0.92236   0.92646   0.94060
 Alpha virt. eigenvalues --    0.94387   0.95043   0.95176   0.95464   0.95890
 Alpha virt. eigenvalues --    0.96782   0.97320   0.97510   0.97797   0.98411
 Alpha virt. eigenvalues --    0.98738   0.99551   1.00203   1.00483   1.00747
 Alpha virt. eigenvalues --    1.01629   1.02122   1.03000   1.03391   1.04282
 Alpha virt. eigenvalues --    1.04410   1.06091   1.06407   1.07567   1.08303
 Alpha virt. eigenvalues --    1.08644   1.10074   1.10137   1.10546   1.10839
 Alpha virt. eigenvalues --    1.11514   1.11936   1.13257   1.13536   1.13961
 Alpha virt. eigenvalues --    1.14168   1.14872   1.15813   1.17084   1.18258
 Alpha virt. eigenvalues --    1.19376   1.19663   1.20761   1.21037   1.22356
 Alpha virt. eigenvalues --    1.23010   1.23538   1.24160   1.24470   1.24968
 Alpha virt. eigenvalues --    1.25768   1.25854   1.26455   1.27068   1.27771
 Alpha virt. eigenvalues --    1.29044   1.29857   1.30110   1.30459   1.30997
 Alpha virt. eigenvalues --    1.31799   1.32121   1.32520   1.32795   1.33739
 Alpha virt. eigenvalues --    1.34936   1.35395   1.36156   1.36997   1.37679
 Alpha virt. eigenvalues --    1.38372   1.38905   1.39238   1.40779   1.41314
 Alpha virt. eigenvalues --    1.41386   1.41668   1.41917   1.42490   1.42915
 Alpha virt. eigenvalues --    1.43209   1.43473   1.44592   1.44933   1.45159
 Alpha virt. eigenvalues --    1.45470   1.45682   1.45886   1.45904   1.46376
 Alpha virt. eigenvalues --    1.46590   1.47362   1.47461   1.47870   1.48057
 Alpha virt. eigenvalues --    1.48572   1.49024   1.49436   1.49976   1.50177
 Alpha virt. eigenvalues --    1.50955   1.51601   1.52177   1.52235   1.52795
 Alpha virt. eigenvalues --    1.53294   1.53453   1.53764   1.54289   1.54527
 Alpha virt. eigenvalues --    1.54931   1.55237   1.55500   1.56063   1.56151
 Alpha virt. eigenvalues --    1.56262   1.56464   1.56860   1.56978   1.57748
 Alpha virt. eigenvalues --    1.58022   1.58166   1.58681   1.58769   1.59166
 Alpha virt. eigenvalues --    1.59632   1.59861   1.60448   1.60789   1.61578
 Alpha virt. eigenvalues --    1.61782   1.62292   1.62640   1.62956   1.63669
 Alpha virt. eigenvalues --    1.63905   1.64883   1.65256   1.65792   1.66147
 Alpha virt. eigenvalues --    1.66502   1.66988   1.67609   1.67940   1.68400
 Alpha virt. eigenvalues --    1.68561   1.69234   1.69540   1.69950   1.70304
 Alpha virt. eigenvalues --    1.70434   1.71029   1.71304   1.71731   1.71878
 Alpha virt. eigenvalues --    1.72354   1.72458   1.73304   1.73463   1.73576
 Alpha virt. eigenvalues --    1.73927   1.75008   1.75143   1.75670   1.76014
 Alpha virt. eigenvalues --    1.76413   1.76780   1.77071   1.77502   1.78240
 Alpha virt. eigenvalues --    1.78413   1.78697   1.79169   1.80191   1.80534
 Alpha virt. eigenvalues --    1.81434   1.81680   1.82017   1.82747   1.82986
 Alpha virt. eigenvalues --    1.83681   1.84300   1.84710   1.84860   1.85230
 Alpha virt. eigenvalues --    1.85851   1.86827   1.87042   1.88072   1.88722
 Alpha virt. eigenvalues --    1.88934   1.89770   1.90847   1.91249   1.91807
 Alpha virt. eigenvalues --    1.92039   1.92878   1.93103   1.93821   1.94103
 Alpha virt. eigenvalues --    1.94547   1.95349   1.95880   1.96429   1.96528
 Alpha virt. eigenvalues --    1.97183   1.97668   1.98282   1.98657   1.99059
 Alpha virt. eigenvalues --    1.99365   2.00085   2.00710   2.01405   2.01626
 Alpha virt. eigenvalues --    2.02339   2.02561   2.02786   2.03097   2.03525
 Alpha virt. eigenvalues --    2.04235   2.04756   2.04949   2.05332   2.05618
 Alpha virt. eigenvalues --    2.06421   2.06631   2.07803   2.08186   2.08949
 Alpha virt. eigenvalues --    2.09091   2.09503   2.10183   2.10962   2.12467
 Alpha virt. eigenvalues --    2.13152   2.13437   2.14083   2.14431   2.15590
 Alpha virt. eigenvalues --    2.16035   2.16802   2.17267   2.18124   2.18747
 Alpha virt. eigenvalues --    2.19036   2.19625   2.19939   2.21382   2.21578
 Alpha virt. eigenvalues --    2.22464   2.23000   2.24017   2.24695   2.25661
 Alpha virt. eigenvalues --    2.26849   2.27341   2.27885   2.28496   2.28670
 Alpha virt. eigenvalues --    2.29495   2.29719   2.30620   2.31437   2.31970
 Alpha virt. eigenvalues --    2.32359   2.33142   2.33899   2.34151   2.34627
 Alpha virt. eigenvalues --    2.35640   2.35817   2.36309   2.37156   2.37392
 Alpha virt. eigenvalues --    2.37840   2.38734   2.39257   2.39267   2.39386
 Alpha virt. eigenvalues --    2.40107   2.40719   2.41498   2.42211   2.42781
 Alpha virt. eigenvalues --    2.43259   2.43732   2.43992   2.44625   2.45212
 Alpha virt. eigenvalues --    2.45790   2.46138   2.46920   2.48178   2.48550
 Alpha virt. eigenvalues --    2.48955   2.49283   2.49513   2.50137   2.50514
 Alpha virt. eigenvalues --    2.50771   2.51238   2.52344   2.53071   2.53278
 Alpha virt. eigenvalues --    2.53972   2.54398   2.54828   2.55058   2.55531
 Alpha virt. eigenvalues --    2.55997   2.56316   2.56882   2.57341   2.57867
 Alpha virt. eigenvalues --    2.58266   2.58713   2.58872   2.59337   2.59726
 Alpha virt. eigenvalues --    2.59952   2.60608   2.61746   2.62519   2.63031
 Alpha virt. eigenvalues --    2.63422   2.64361   2.64826   2.65067   2.65465
 Alpha virt. eigenvalues --    2.66337   2.66644   2.67224   2.67617   2.68178
 Alpha virt. eigenvalues --    2.68457   2.68911   2.69563   2.69990   2.70326
 Alpha virt. eigenvalues --    2.71070   2.71646   2.71886   2.72222   2.72769
 Alpha virt. eigenvalues --    2.73440   2.73973   2.74823   2.75465   2.75557
 Alpha virt. eigenvalues --    2.76461   2.77044   2.78264   2.79247   2.79823
 Alpha virt. eigenvalues --    2.80809   2.80884   2.82057   2.82608   2.82995
 Alpha virt. eigenvalues --    2.83324   2.84226   2.84790   2.85333   2.85521
 Alpha virt. eigenvalues --    2.85539   2.87007   2.87393   2.88101   2.89013
 Alpha virt. eigenvalues --    2.89706   2.89817   2.90940   2.92078   2.92857
 Alpha virt. eigenvalues --    2.93753   2.94602   2.96347   2.96761   2.98328
 Alpha virt. eigenvalues --    2.98758   2.99231   3.00212   3.01675   3.02559
 Alpha virt. eigenvalues --    3.03178   3.04256   3.04720   3.06397   3.07358
 Alpha virt. eigenvalues --    3.07986   3.08378   3.09311   3.10346   3.11865
 Alpha virt. eigenvalues --    3.13610   3.13730   3.14630   3.14742   3.15985
 Alpha virt. eigenvalues --    3.17684   3.17943   3.20519   3.21174   3.22174
 Alpha virt. eigenvalues --    3.23441   3.23785   3.24374   3.25717   3.26133
 Alpha virt. eigenvalues --    3.26850   3.28296   3.29145   3.30881   3.31760
 Alpha virt. eigenvalues --    3.35366   3.35505   3.37406   3.39113   3.40370
 Alpha virt. eigenvalues --    3.41120   3.43350   3.44424   3.45645   3.47141
 Alpha virt. eigenvalues --    3.47612   3.48241   3.49992   3.52833   3.55335
 Alpha virt. eigenvalues --    3.56103   3.59288   3.60178   3.63367   3.66770
 Alpha virt. eigenvalues --    3.72184   3.74551   3.75029   3.76844   3.77424
 Alpha virt. eigenvalues --    3.77462   3.77612   3.77882   3.78050   3.78356
 Alpha virt. eigenvalues --    3.78723   3.78806   3.79208   3.80026   3.80835
 Alpha virt. eigenvalues --    3.81513   3.81797   3.82948   3.83387   3.84081
 Alpha virt. eigenvalues --    3.84345   3.85815   3.87071   3.89082   3.92711
 Alpha virt. eigenvalues --    3.94349   3.96772   3.99150   4.02691   4.03988
 Alpha virt. eigenvalues --    4.07135   4.07491   4.16277   4.18145   4.19845
 Alpha virt. eigenvalues --    4.20235   4.20701   4.22643   4.26496   4.27925
 Alpha virt. eigenvalues --    4.29361   4.33606   4.33946   4.34347   4.38141
 Alpha virt. eigenvalues --    4.42325   4.43270   4.48127   4.52198   4.62224
 Alpha virt. eigenvalues --    4.86269   4.90163   4.92151   4.96013   4.97711
 Alpha virt. eigenvalues --    5.10924   5.37098   5.72601   7.80673  17.21955
 Alpha virt. eigenvalues --   17.43883  17.54169  23.28535  23.54142  23.67703
 Alpha virt. eigenvalues --   23.74713  23.81446  23.81760  23.83073  23.84685
 Alpha virt. eigenvalues --   23.85127  23.85491  23.85952  23.86071  23.86402
 Alpha virt. eigenvalues --   23.87424  23.88895  23.90113  23.91353  23.91713
 Alpha virt. eigenvalues --   23.92218  23.92360  23.93691  23.93943  23.94901
 Alpha virt. eigenvalues --   23.95781  23.97754  24.02797  24.05297  24.06084
 Alpha virt. eigenvalues --   24.09303  24.13065  24.16086  24.17286  24.18464
 Alpha virt. eigenvalues --   24.21493  24.36066  35.58169  49.93256 188.93056
  Beta  occ. eigenvalues --  -88.86861 -19.15028 -14.28271 -10.23527 -10.21158
  Beta  occ. eigenvalues --  -10.20348 -10.19775 -10.19406 -10.19308 -10.18915
  Beta  occ. eigenvalues --  -10.18876 -10.18212 -10.18200 -10.17987 -10.17918
  Beta  occ. eigenvalues --  -10.17868 -10.17781 -10.17712 -10.17623 -10.17617
  Beta  occ. eigenvalues --  -10.17531 -10.17454 -10.17384 -10.17105 -10.17073
  Beta  occ. eigenvalues --  -10.17014 -10.16864 -10.16811 -10.16666 -10.16561
  Beta  occ. eigenvalues --  -10.16498 -10.16448 -10.16409 -10.16263 -10.16157
  Beta  occ. eigenvalues --  -10.15767 -10.15677 -10.15483  -7.95354  -5.91684
  Beta  occ. eigenvalues --   -5.91367  -5.90822  -1.06781  -0.92700  -0.89566
  Beta  occ. eigenvalues --   -0.88670  -0.85374  -0.84284  -0.82300  -0.80770
  Beta  occ. eigenvalues --   -0.80511  -0.79626  -0.78929  -0.77129  -0.76325
  Beta  occ. eigenvalues --   -0.75183  -0.74096  -0.73136  -0.72182  -0.71469
  Beta  occ. eigenvalues --   -0.71213  -0.68777  -0.65635  -0.65028  -0.64983
  Beta  occ. eigenvalues --   -0.63442  -0.62475  -0.61997  -0.61254  -0.60576
  Beta  occ. eigenvalues --   -0.59334  -0.58248  -0.57811  -0.57661  -0.55333
  Beta  occ. eigenvalues --   -0.54678  -0.53288  -0.52255  -0.51537  -0.50738
  Beta  occ. eigenvalues --   -0.49609  -0.48518  -0.47615  -0.46727  -0.46352
  Beta  occ. eigenvalues --   -0.45720  -0.45564  -0.45038  -0.44952  -0.44149
  Beta  occ. eigenvalues --   -0.43856  -0.43575  -0.43346  -0.42971  -0.42607
  Beta  occ. eigenvalues --   -0.42362  -0.41874  -0.41620  -0.41209  -0.41114
  Beta  occ. eigenvalues --   -0.40987  -0.40387  -0.39882  -0.39445  -0.39247
  Beta  occ. eigenvalues --   -0.38453  -0.38333  -0.38107  -0.37479  -0.36880
  Beta  occ. eigenvalues --   -0.36473  -0.36202  -0.35960  -0.35662  -0.35103
  Beta  occ. eigenvalues --   -0.34969  -0.34730  -0.34584  -0.34252  -0.34069
  Beta  occ. eigenvalues --   -0.33802  -0.33567  -0.33375  -0.32849  -0.32506
  Beta  occ. eigenvalues --   -0.32366  -0.32246  -0.31584  -0.31375  -0.30387
  Beta  occ. eigenvalues --   -0.30064  -0.29852  -0.29369  -0.25951  -0.24794
  Beta  occ. eigenvalues --   -0.24236  -0.23352  -0.22574  -0.19016
  Beta virt. eigenvalues --   -0.09340  -0.06429  -0.02521  -0.01715  -0.00985
  Beta virt. eigenvalues --   -0.00134   0.03451   0.04377   0.04539   0.04926
  Beta virt. eigenvalues --    0.05273   0.05515   0.05583   0.06004   0.06337
  Beta virt. eigenvalues --    0.06442   0.06988   0.07367   0.07693   0.08160
  Beta virt. eigenvalues --    0.08567   0.09136   0.09441   0.09545   0.10071
  Beta virt. eigenvalues --    0.10518   0.10788   0.11192   0.11704   0.12185
  Beta virt. eigenvalues --    0.12265   0.12300   0.12675   0.12953   0.13240
  Beta virt. eigenvalues --    0.13464   0.13872   0.14143   0.14531   0.14866
  Beta virt. eigenvalues --    0.15143   0.15575   0.16117   0.16299   0.16545
  Beta virt. eigenvalues --    0.16671   0.17341   0.17560   0.18002   0.18437
  Beta virt. eigenvalues --    0.18775   0.19349   0.19390   0.20180   0.20472
  Beta virt. eigenvalues --    0.20894   0.20962   0.21520   0.21925   0.22084
  Beta virt. eigenvalues --    0.22622   0.23132   0.23310   0.23702   0.23772
  Beta virt. eigenvalues --    0.23990   0.24626   0.25315   0.25561   0.25849
  Beta virt. eigenvalues --    0.26658   0.27051   0.27133   0.27672   0.28231
  Beta virt. eigenvalues --    0.28318   0.28604   0.29200   0.29720   0.30323
  Beta virt. eigenvalues --    0.30345   0.30602   0.30874   0.31129   0.31759
  Beta virt. eigenvalues --    0.31826   0.32809   0.33459   0.33534   0.33885
  Beta virt. eigenvalues --    0.34018   0.34299   0.34894   0.35065   0.35725
  Beta virt. eigenvalues --    0.35875   0.36378   0.36609   0.37003   0.37067
  Beta virt. eigenvalues --    0.37610   0.38260   0.38378   0.39123   0.39166
  Beta virt. eigenvalues --    0.39528   0.39786   0.40320   0.41070   0.41403
  Beta virt. eigenvalues --    0.41648   0.42017   0.42341   0.42547   0.42689
  Beta virt. eigenvalues --    0.43136   0.43533   0.43728   0.44561   0.44947
  Beta virt. eigenvalues --    0.45222   0.45474   0.46127   0.46366   0.46803
  Beta virt. eigenvalues --    0.47260   0.47729   0.48186   0.48363   0.48639
  Beta virt. eigenvalues --    0.49031   0.49556   0.49907   0.50079   0.50879
  Beta virt. eigenvalues --    0.51063   0.51259   0.52054   0.52325   0.52844
  Beta virt. eigenvalues --    0.52994   0.53255   0.53715   0.53901   0.54320
  Beta virt. eigenvalues --    0.54713   0.55002   0.55241   0.55393   0.55546
  Beta virt. eigenvalues --    0.55892   0.55998   0.56733   0.56820   0.56936
  Beta virt. eigenvalues --    0.57280   0.57382   0.57448   0.57935   0.57967
  Beta virt. eigenvalues --    0.58311   0.58673   0.58989   0.59102   0.59245
  Beta virt. eigenvalues --    0.59502   0.59589   0.59785   0.59952   0.60327
  Beta virt. eigenvalues --    0.60413   0.60612   0.60675   0.61013   0.61279
  Beta virt. eigenvalues --    0.61567   0.61642   0.61886   0.62128   0.62312
  Beta virt. eigenvalues --    0.62473   0.63161   0.63211   0.63436   0.63613
  Beta virt. eigenvalues --    0.63800   0.63945   0.64188   0.64615   0.64952
  Beta virt. eigenvalues --    0.65307   0.65417   0.66083   0.66294   0.66974
  Beta virt. eigenvalues --    0.67333   0.67613   0.67932   0.68383   0.68777
  Beta virt. eigenvalues --    0.69255   0.69699   0.69993   0.70391   0.70669
  Beta virt. eigenvalues --    0.70715   0.71640   0.72127   0.72287   0.72569
  Beta virt. eigenvalues --    0.73104   0.74067   0.74393   0.74964   0.75527
  Beta virt. eigenvalues --    0.75942   0.77409   0.77754   0.78834   0.79238
  Beta virt. eigenvalues --    0.80232   0.80753   0.81317   0.82101   0.82356
  Beta virt. eigenvalues --    0.83228   0.83474   0.84467   0.84659   0.84817
  Beta virt. eigenvalues --    0.85440   0.86114   0.87472   0.87757   0.87998
  Beta virt. eigenvalues --    0.88413   0.89652   0.89763   0.90388   0.90685
  Beta virt. eigenvalues --    0.91005   0.91392   0.91725   0.92361   0.92758
  Beta virt. eigenvalues --    0.94117   0.94457   0.95079   0.95252   0.95566
  Beta virt. eigenvalues --    0.95977   0.96830   0.97426   0.97671   0.97963
  Beta virt. eigenvalues --    0.98548   0.98806   0.99629   1.00260   1.00574
  Beta virt. eigenvalues --    1.00773   1.01671   1.02172   1.03076   1.03460
  Beta virt. eigenvalues --    1.04373   1.04496   1.06167   1.06474   1.07673
  Beta virt. eigenvalues --    1.08326   1.08710   1.10171   1.10196   1.10623
  Beta virt. eigenvalues --    1.10860   1.11681   1.12026   1.13310   1.13594
  Beta virt. eigenvalues --    1.14009   1.14216   1.14942   1.15863   1.17183
  Beta virt. eigenvalues --    1.18282   1.19434   1.19724   1.20928   1.21235
  Beta virt. eigenvalues --    1.22435   1.23040   1.23596   1.24200   1.24494
  Beta virt. eigenvalues --    1.25012   1.25798   1.25880   1.26491   1.27106
  Beta virt. eigenvalues --    1.27825   1.29210   1.29912   1.30185   1.30476
  Beta virt. eigenvalues --    1.31039   1.32014   1.32244   1.32680   1.32858
  Beta virt. eigenvalues --    1.33796   1.35025   1.35477   1.36203   1.37067
  Beta virt. eigenvalues --    1.37821   1.38436   1.38993   1.39278   1.40854
  Beta virt. eigenvalues --    1.41362   1.41452   1.41983   1.42171   1.42686
  Beta virt. eigenvalues --    1.42987   1.43292   1.43659   1.44696   1.44957
  Beta virt. eigenvalues --    1.45307   1.45556   1.45731   1.45901   1.45910
  Beta virt. eigenvalues --    1.46440   1.46639   1.47412   1.47492   1.47905
  Beta virt. eigenvalues --    1.48106   1.48619   1.49086   1.49491   1.50022
  Beta virt. eigenvalues --    1.50244   1.51055   1.51688   1.52243   1.52292
  Beta virt. eigenvalues --    1.52904   1.53357   1.53505   1.53820   1.54341
  Beta virt. eigenvalues --    1.54588   1.54952   1.55263   1.55553   1.56135
  Beta virt. eigenvalues --    1.56221   1.56356   1.56503   1.56906   1.57007
  Beta virt. eigenvalues --    1.57842   1.58073   1.58276   1.58746   1.58937
  Beta virt. eigenvalues --    1.59215   1.59681   1.59925   1.60526   1.60933
  Beta virt. eigenvalues --    1.61645   1.61968   1.62364   1.62710   1.63025
  Beta virt. eigenvalues --    1.63717   1.63996   1.64977   1.65305   1.65923
  Beta virt. eigenvalues --    1.66211   1.66572   1.67060   1.67623   1.68057
  Beta virt. eigenvalues --    1.68464   1.68612   1.69279   1.69582   1.70001
  Beta virt. eigenvalues --    1.70371   1.70492   1.71093   1.71346   1.71754
  Beta virt. eigenvalues --    1.71891   1.72387   1.72504   1.73350   1.73540
  Beta virt. eigenvalues --    1.73600   1.73963   1.75037   1.75196   1.75751
  Beta virt. eigenvalues --    1.76060   1.76442   1.76854   1.77206   1.77526
  Beta virt. eigenvalues --    1.78283   1.78488   1.78768   1.79240   1.80230
  Beta virt. eigenvalues --    1.80594   1.81508   1.81712   1.82085   1.82832
  Beta virt. eigenvalues --    1.83067   1.83795   1.84487   1.84819   1.84927
  Beta virt. eigenvalues --    1.85277   1.85988   1.86962   1.87116   1.88181
  Beta virt. eigenvalues --    1.88840   1.89062   1.89865   1.90956   1.91318
  Beta virt. eigenvalues --    1.91999   1.92439   1.92961   1.93169   1.93942
  Beta virt. eigenvalues --    1.94163   1.94721   1.95444   1.95898   1.96512
  Beta virt. eigenvalues --    1.96752   1.97295   1.97738   1.98388   1.98725
  Beta virt. eigenvalues --    1.99117   1.99483   2.00153   2.00783   2.01472
  Beta virt. eigenvalues --    2.01709   2.02480   2.02648   2.02834   2.03182
  Beta virt. eigenvalues --    2.03652   2.04286   2.04790   2.05008   2.05463
  Beta virt. eigenvalues --    2.05786   2.06536   2.06658   2.07954   2.08295
  Beta virt. eigenvalues --    2.09048   2.09264   2.09881   2.10288   2.11163
  Beta virt. eigenvalues --    2.12561   2.13225   2.13543   2.14139   2.14447
  Beta virt. eigenvalues --    2.15646   2.16169   2.16844   2.17299   2.18247
  Beta virt. eigenvalues --    2.18824   2.19113   2.19794   2.20030   2.21396
  Beta virt. eigenvalues --    2.21662   2.22564   2.23096   2.24592   2.24764
  Beta virt. eigenvalues --    2.25743   2.26932   2.27380   2.27978   2.28643
  Beta virt. eigenvalues --    2.28827   2.29765   2.29829   2.30758   2.31492
  Beta virt. eigenvalues --    2.32015   2.32452   2.33212   2.34180   2.34217
  Beta virt. eigenvalues --    2.34676   2.35802   2.35871   2.36400   2.37218
  Beta virt. eigenvalues --    2.37489   2.37884   2.38788   2.39295   2.39333
  Beta virt. eigenvalues --    2.39490   2.40144   2.41006   2.41588   2.42353
  Beta virt. eigenvalues --    2.43065   2.43456   2.43818   2.44415   2.44644
  Beta virt. eigenvalues --    2.45402   2.45871   2.46340   2.47156   2.48203
  Beta virt. eigenvalues --    2.48712   2.49063   2.49424   2.49609   2.50298
  Beta virt. eigenvalues --    2.50596   2.50836   2.51334   2.52544   2.53422
  Beta virt. eigenvalues --    2.53641   2.54182   2.54482   2.54937   2.55108
  Beta virt. eigenvalues --    2.55614   2.56114   2.56432   2.56934   2.57434
  Beta virt. eigenvalues --    2.57957   2.58316   2.58733   2.58895   2.59386
  Beta virt. eigenvalues --    2.59767   2.60030   2.60630   2.61816   2.62808
  Beta virt. eigenvalues --    2.63172   2.63679   2.64562   2.64980   2.65228
  Beta virt. eigenvalues --    2.65523   2.66384   2.66725   2.67278   2.67670
  Beta virt. eigenvalues --    2.68260   2.68567   2.69083   2.69600   2.70198
  Beta virt. eigenvalues --    2.70389   2.71156   2.71903   2.71954   2.72311
  Beta virt. eigenvalues --    2.72944   2.73521   2.74310   2.74891   2.75624
  Beta virt. eigenvalues --    2.75750   2.76629   2.77101   2.78480   2.79349
  Beta virt. eigenvalues --    2.80025   2.80861   2.80935   2.82120   2.82631
  Beta virt. eigenvalues --    2.83033   2.83391   2.84403   2.85068   2.85363
  Beta virt. eigenvalues --    2.85526   2.85585   2.87100   2.87410   2.88135
  Beta virt. eigenvalues --    2.89054   2.89787   2.89916   2.90997   2.92346
  Beta virt. eigenvalues --    2.92878   2.93962   2.94810   2.96533   2.96797
  Beta virt. eigenvalues --    2.98394   2.98833   2.99272   3.00238   3.01778
  Beta virt. eigenvalues --    3.02600   3.03234   3.04337   3.04866   3.06428
  Beta virt. eigenvalues --    3.07416   3.08064   3.08424   3.09339   3.10411
  Beta virt. eigenvalues --    3.11909   3.13702   3.13909   3.14692   3.14736
  Beta virt. eigenvalues --    3.16162   3.17786   3.17994   3.20546   3.21222
  Beta virt. eigenvalues --    3.22257   3.23487   3.23824   3.24442   3.25762
  Beta virt. eigenvalues --    3.26185   3.26883   3.28363   3.29179   3.30913
  Beta virt. eigenvalues --    3.31780   3.35404   3.35538   3.37478   3.39127
  Beta virt. eigenvalues --    3.40403   3.41143   3.43394   3.44506   3.45695
  Beta virt. eigenvalues --    3.47159   3.47678   3.48302   3.50035   3.52907
  Beta virt. eigenvalues --    3.55397   3.56162   3.59400   3.60614   3.63584
  Beta virt. eigenvalues --    3.66848   3.73002   3.74984   3.75329   3.77010
  Beta virt. eigenvalues --    3.77437   3.77528   3.77617   3.77893   3.78072
  Beta virt. eigenvalues --    3.78366   3.78728   3.78823   3.79211   3.80061
  Beta virt. eigenvalues --    3.80838   3.81518   3.81801   3.82964   3.83432
  Beta virt. eigenvalues --    3.84082   3.84384   3.85933   3.87131   3.89262
  Beta virt. eigenvalues --    3.94236   3.96706   3.97073   3.99269   4.02791
  Beta virt. eigenvalues --    4.04305   4.07133   4.07492   4.16287   4.18181
  Beta virt. eigenvalues --    4.19845   4.20243   4.20701   4.22662   4.26629
  Beta virt. eigenvalues --    4.27933   4.30139   4.33682   4.33944   4.34391
  Beta virt. eigenvalues --    4.38150   4.42335   4.43298   4.48143   4.52276
  Beta virt. eigenvalues --    4.62303   4.86465   4.90299   4.92178   4.96096
  Beta virt. eigenvalues --    4.97779   5.11892   5.37116   5.72619   7.80724
  Beta virt. eigenvalues --   17.22059  17.43909  17.54181  23.28566  23.54167
  Beta virt. eigenvalues --   23.67732  23.74713  23.81405  23.81752  23.83074
  Beta virt. eigenvalues --   23.84682  23.85125  23.85493  23.85949  23.86071
  Beta virt. eigenvalues --   23.86411  23.87431  23.88912  23.90127  23.91353
  Beta virt. eigenvalues --   23.91714  23.92218  23.92360  23.93716  23.93943
  Beta virt. eigenvalues --   23.94905  23.95807  23.97783  24.02884  24.05270
  Beta virt. eigenvalues --   24.06142  24.09352  24.13098  24.16095  24.17301
  Beta virt. eigenvalues --   24.18507  24.21486  24.36124  35.59587  49.93267
  Beta virt. eigenvalues --  188.93080
          Condensed to atoms (all electrons):
          Atomic-Atomic Spin Densities.
 Mulliken charges and spin densities:
               1          2
     1  C    0.038411  -0.057302
     2  C   -0.162101   0.092237
     3  C    0.171294  -0.064246
     4  C   -0.100355   0.227069
     5  C    0.115938  -0.124554
     6  N   -0.417328   0.634042
     7  C   -0.010089   0.175031
     8  C   -0.030989  -0.102922
     9  C   -0.279349   0.135093
    10  C    0.005731  -0.084598
    11  C    0.153985   0.030149
    12  C   -0.048573  -0.024341
    13  C    0.101156   0.036086
    14  C    0.078580  -0.030239
    15  C   -0.039634   0.032443
    16  C   -0.100148  -0.022137
    17  C    0.128604   0.029587
    18  C   -0.164490   0.001623
    19  C   -0.176266  -0.000199
    20  C   -0.186202   0.000172
    21  C   -0.143335  -0.002306
    22  C   -0.089180   0.087735
    23  C   -0.095707  -0.045534
    24  C   -0.174843   0.001970
    25  C   -0.181372  -0.007564
    26  C   -0.251079   0.004040
    27  C   -0.176477  -0.001095
    28  C   -0.232693  -0.000299
    29  C   -0.298190  -0.000016
    30  C   -0.212453  -0.000024
    31  C   -0.291062  -0.000008
    32  O   -0.379335   0.002550
    33  S    0.179259   0.044062
    34  C   -0.338457  -0.054212
    35  C   -0.231282   0.006140
    36  C   -0.187240  -0.002830
    37  C   -0.228713  -0.000851
    38  C   -0.299880  -0.000011
    39  H    0.144314   0.030470
    40  H    0.152898   0.059014
    41  H    0.082009  -0.010080
    42  H    0.128362  -0.000356
    43  H    0.124004  -0.000951
    44  H    0.111985  -0.000012
    45  H    0.113617  -0.000015
    46  H    0.117330   0.000000
    47  H    0.136404   0.000856
    48  H    0.118471  -0.000083
    49  H    0.112979  -0.000024
    50  H    0.130508   0.004473
    51  H    0.133273   0.002026
    52  H    0.119347  -0.000577
    53  H    0.120645  -0.000243
    54  H    0.111554   0.000155
    55  H    0.112040   0.000197
    56  H    0.106412   0.000020
    57  H    0.108936   0.000075
    58  H    0.109576  -0.000044
    59  H    0.106413  -0.000001
    60  H    0.103511   0.000001
    61  H    0.111576   0.000007
    62  H    0.108357   0.000003
    63  H    0.106235  -0.000001
    64  H    0.110456  -0.000000
    65  H    0.103940   0.000001
    66  H    0.247818   0.000008
    67  H    0.112745   0.002742
    68  H    0.130146  -0.000607
    69  H    0.140764  -0.001725
    70  H    0.123322  -0.000011
    71  H    0.115930   0.000003
    72  H    0.107531  -0.000002
    73  H    0.108432   0.000044
    74  H    0.106672   0.000002
    75  H    0.106061   0.000011
    76  H    0.109285  -0.000119
 Sum of Mulliken charges =  -0.00000   1.00000
 Mulliken charges and spin densities with hydrogens summed into heavy atoms:
               1          2
     1  C    0.335624   0.032182
     2  C   -0.162101   0.092237
     3  C    0.171294  -0.064246
     4  C   -0.100355   0.227069
     5  C    0.115938  -0.124554
     6  N   -0.417328   0.634042
     7  C    0.071920   0.164952
     8  C   -0.030989  -0.102922
     9  C   -0.279349   0.135093
    10  C    0.005731  -0.084598
    11  C    0.153985   0.030149
    12  C   -0.048573  -0.024341
    13  C    0.101156   0.036086
    14  C    0.078580  -0.030239
    15  C   -0.039634   0.032443
    16  C   -0.100148  -0.022137
    17  C    0.128604   0.029587
    18  C    0.087876   0.000316
    19  C    0.049336  -0.000226
    20  C   -0.068872   0.000173
    21  C   -0.006931  -0.001450
    22  C   -0.089180   0.087735
    23  C   -0.095707  -0.045534
    24  C    0.056608   0.001863
    25  C    0.082409  -0.001064
    26  C   -0.011087   0.003220
    27  C    0.047118  -0.000744
    28  C   -0.017345  -0.000204
    29  C    0.021310  -0.000059
    30  C    0.007480  -0.000014
    31  C    0.029570  -0.000009
    32  O   -0.131517   0.002558
    33  S    0.179259   0.044062
    34  C   -0.225712  -0.051470
    35  C    0.039628   0.003807
    36  C    0.052012  -0.002838
    37  C   -0.012750  -0.000810
    38  C    0.022139  -0.000117
 Electronic spatial extent (au):  <R**2>=          25476.7401
 Charge=             -0.0000 electrons
 Dipole moment (field-independent basis, Debye):
    X=             -3.5734    Y=             -0.2538    Z=              0.5229  Tot=              3.6204
 Quadrupole moment (field-independent basis, Debye-Ang):
   XX=           -213.4977   YY=           -233.0075   ZZ=           -238.6610
   XY=             -6.5274   XZ=              0.7915   YZ=             -5.7974
 Traceless Quadrupole moment (field-independent basis, Debye-Ang):
   XX=             14.8910   YY=             -4.6188   ZZ=            -10.2722
   XY=             -6.5274   XZ=              0.7915   YZ=             -5.7974
 Octapole moment (field-independent basis, Debye-Ang**2):
  XXX=             16.5320  YYY=            -25.0124  ZZZ=              2.6382  XYY=            -35.2391
  XXY=             -5.6331  XXZ=            -10.2795  XZZ=            -15.4967  YZZ=             -0.7128
  YYZ=              5.1115  XYZ=              1.6554
 Hexadecapole moment (field-independent basis, Debye-Ang**3):
 XXXX=         -23613.2799 YYYY=         -10080.0826 ZZZZ=          -1109.0447 XXXY=             84.8066
 XXXZ=            -67.1477 YYYX=           -185.2740 YYYZ=            -85.0476 ZZZX=              3.4096
 ZZZY=            -31.7377 XXYY=          -5800.8197 XXZZ=          -4351.8556 YYZZ=          -1883.1008
 XXYZ=            -13.5717 YYXZ=             46.4690 ZZXY=             27.0618
 N-N= 4.343486323908D+03 E-N=-1.308675542335D+04  KE= 1.878492065180D+03
                          Isotropic Fermi Contact Couplings
        Atom                 a.u.       MegaHertz       Gauss      10(-4) cm-1
     1  C(13)             -0.02439     -27.42376      -9.78548      -9.14758
     2  C(13)              0.00873       9.81389       3.50184       3.27356
     3  C(13)             -0.01051     -11.81167      -4.21470      -3.93995
     4  C(13)              0.01537      17.28245       6.16681       5.76480
     5  C(13)             -0.02779     -31.24110     -11.14760     -10.42091
     6  N(14)              0.06814      22.01713       7.85626       7.34412
     7  C(13)              0.01227      13.79893       4.92380       4.60283
     8  C(13)             -0.01151     -12.94187      -4.61798      -4.31694
     9  C(13)              0.01028      11.55640       4.12361       3.85480
    10  C(13)             -0.01173     -13.18245      -4.70382      -4.39719
    11  C(13)              0.00401       4.50523       1.60758       1.50278
    12  C(13)             -0.00331      -3.72443      -1.32897      -1.24233
    13  C(13)              0.00352       3.96012       1.41307       1.32095
    14  C(13)             -0.00442      -4.97015      -1.77347      -1.65786
    15  C(13)              0.00273       3.06386       1.09326       1.02199
    16  C(13)             -0.00244      -2.74305      -0.97879      -0.91498
    17  C(13)              0.00273       3.06865       1.09497       1.02359
    18  C(13)              0.00050       0.55872       0.19936       0.18637
    19  C(13)             -0.00025      -0.28256      -0.10082      -0.09425
    20  C(13)              0.00005       0.06107       0.02179       0.02037
    21  C(13)             -0.00085      -0.95580      -0.34105      -0.31882
    22  C(13)              0.00589       6.62480       2.36389       2.20979
    23  C(13)             -0.00631      -7.09084      -2.53019      -2.36525
    24  C(13)              0.00076       0.85635       0.30557       0.28565
    25  C(13)             -0.00257      -2.89306      -1.03232      -0.96502
    26  C(13)              0.00077       0.86235       0.30771       0.28765
    27  C(13)             -0.00130      -1.45911      -0.52065      -0.48671
    28  C(13)             -0.00013      -0.14904      -0.05318      -0.04972
    29  C(13)             -0.00004      -0.03968      -0.01416      -0.01323
    30  C(13)             -0.00004      -0.04418      -0.01576      -0.01474
    31  C(13)             -0.00000      -0.00245      -0.00087      -0.00082
    32  O(17)              0.00133      -0.80756      -0.28816      -0.26937
    33  S(33)              0.00095       0.32498       0.11596       0.10840
    34  C(13)             -0.00540      -6.06947      -2.16574      -2.02456
    35  C(13)              0.00209       2.34842       0.83797       0.78335
    36  C(13)             -0.00489      -5.50239      -1.96339      -1.83540
    37  C(13)             -0.00027      -0.30055      -0.10724      -0.10025
    38  C(13)             -0.00009      -0.10128      -0.03614      -0.03378
    39  H(1)               0.01448      64.70841      23.08957      21.58440
    40  H(1)               0.02766     123.64668      44.12021      41.24409
    41  H(1)              -0.00239     -10.68154      -3.81144      -3.56298
    42  H(1)              -0.00019      -0.84600      -0.30188      -0.28220
    43  H(1)              -0.00045      -2.01962      -0.72065      -0.67367
    44  H(1)               0.00000       0.00299       0.00107       0.00100
    45  H(1)               0.00002       0.06900       0.02462       0.02302
    46  H(1)              -0.00001      -0.04129      -0.01473      -0.01377
    47  H(1)               0.00043       1.89992       0.67794       0.63375
    48  H(1)              -0.00002      -0.09445      -0.03370      -0.03151
    49  H(1)              -0.00002      -0.09980      -0.03561      -0.03329
    50  H(1)               0.00219       9.77269       3.48714       3.25982
    51  H(1)               0.00100       4.47380       1.59636       1.49230
    52  H(1)              -0.00026      -1.14349      -0.40802      -0.38143
    53  H(1)              -0.00017      -0.74721      -0.26662      -0.24924
    54  H(1)               0.00005       0.23207       0.08281       0.07741
    55  H(1)               0.00007       0.31574       0.11266       0.10532
    56  H(1)               0.00001       0.03190       0.01138       0.01064
    57  H(1)               0.00000       0.02123       0.00757       0.00708
    58  H(1)              -0.00002      -0.08396      -0.02996      -0.02801
    59  H(1)              -0.00000      -0.00847      -0.00302      -0.00282
    60  H(1)              -0.00000      -0.00435      -0.00155      -0.00145
    61  H(1)               0.00000       0.01724       0.00615       0.00575
    62  H(1)               0.00000       0.00363       0.00130       0.00121
    63  H(1)               0.00000       0.00205       0.00073       0.00068
    64  H(1)              -0.00000      -0.00112      -0.00040      -0.00037
    65  H(1)               0.00000       0.00153       0.00054       0.00051
    66  H(1)               0.00031       1.39740       0.49863       0.46612
    67  H(1)               0.00071       3.16024       1.12765       1.05414
    68  H(1)              -0.00045      -2.03363      -0.72565      -0.67835
    69  H(1)              -0.00072      -3.21547      -1.14736      -1.07257
    70  H(1)               0.00008       0.35497       0.12666       0.11841
    71  H(1)               0.00004       0.16677       0.05951       0.05563
    72  H(1)               0.00001       0.03775       0.01347       0.01259
    73  H(1)               0.00001       0.06107       0.02179       0.02037
    74  H(1)              -0.00000      -0.01863      -0.00665      -0.00621
    75  H(1)              -0.00001      -0.02468      -0.00881      -0.00823
    76  H(1)              -0.00005      -0.24001      -0.08564      -0.08006
 --------------------------------------------------------
       Center         ----  Spin Dipole Couplings  ----
                      3XX-RR        3YY-RR        3ZZ-RR
 --------------------------------------------------------
     1   Atom        0.008520     -0.018216      0.009697
     2   Atom       -0.040374     -0.052545      0.092919
     3   Atom        0.027958      0.023325     -0.051283
     4   Atom       -0.123963     -0.109603      0.233566
     5   Atom        0.045712      0.069232     -0.114943
     6   Atom       -0.694142     -0.746896      1.441037
     7   Atom       -0.082163     -0.090877      0.173040
     8   Atom        0.044876      0.046391     -0.091267
     9   Atom       -0.085646     -0.078222      0.163867
    10   Atom        0.031191      0.036331     -0.067522
    11   Atom       -0.011298     -0.010205      0.021504
    12   Atom        0.009686      0.012973     -0.022659
    13   Atom       -0.013523     -0.014438      0.027961
    14   Atom        0.011356      0.009965     -0.021321
    15   Atom       -0.014344     -0.016168      0.030512
    16   Atom        0.010164      0.010660     -0.020825
    17   Atom       -0.018868     -0.016778      0.035646
    18   Atom        0.000163      0.000599     -0.000761
    19   Atom       -0.000184      0.000377     -0.000194
    20   Atom        0.000338      0.000044     -0.000381
    21   Atom        0.000471     -0.000089     -0.000382
    22   Atom       -0.042886     -0.040681      0.083567
    23   Atom        0.023048      0.014402     -0.037450
    24   Atom        0.000130      0.001210     -0.001340
    25   Atom        0.001172     -0.001498      0.000326
    26   Atom        0.002792     -0.000458     -0.002335
    27   Atom        0.002676     -0.000644     -0.002032
    28   Atom        0.000802     -0.000397     -0.000406
    29   Atom        0.000342     -0.000019     -0.000323
    30   Atom        0.000252     -0.000042     -0.000209
    31   Atom        0.000148     -0.000019     -0.000129
    32   Atom       -0.007591     -0.009431      0.017022
    33   Atom       -0.083367     -0.111815      0.195182
    34   Atom        0.026947      0.032877     -0.059824
    35   Atom        0.002335      0.000709     -0.003044
    36   Atom        0.001021      0.001962     -0.002984
    37   Atom       -0.000667      0.000415      0.000253
    38   Atom        0.000355     -0.000091     -0.000265
    39   Atom        0.006396      0.000864     -0.007260
    40   Atom        0.003991     -0.004851      0.000861
    41   Atom        0.005843     -0.000962     -0.004881
    42   Atom        0.000059      0.000272     -0.000331
    43   Atom        0.000021      0.000291     -0.000312
    44   Atom        0.000040      0.000160     -0.000200
    45   Atom        0.000066      0.000257     -0.000323
    46   Atom        0.000181      0.000047     -0.000228
    47   Atom        0.000692     -0.000257     -0.000435
    48   Atom        0.000537     -0.000260     -0.000276
    49   Atom        0.000929     -0.000370     -0.000559
    50   Atom        0.001722     -0.000815     -0.000907
    51   Atom        0.001407     -0.000616     -0.000791
    52   Atom        0.001311     -0.000292     -0.001018
    53   Atom        0.003482     -0.001464     -0.002019
    54   Atom        0.001953     -0.000855     -0.001098
    55   Atom        0.000972     -0.000137     -0.000835
    56   Atom        0.000571     -0.000063     -0.000508
    57   Atom        0.000554      0.000186     -0.000739
    58   Atom        0.000195      0.000052     -0.000246
    59   Atom        0.000205      0.000026     -0.000231
    60   Atom        0.000317     -0.000092     -0.000225
    61   Atom        0.000307     -0.000073     -0.000235
    62   Atom        0.000356     -0.000138     -0.000218
    63   Atom        0.000103      0.000022     -0.000125
    64   Atom        0.000140     -0.000034     -0.000106
    65   Atom        0.000116     -0.000009     -0.000107
    66   Atom        0.000018      0.000560     -0.000578
    67   Atom        0.003210     -0.002398     -0.000812
    68   Atom        0.001972     -0.000719     -0.001252
    69   Atom        0.001180     -0.000205     -0.000975
    70   Atom        0.001037     -0.000238     -0.000798
    71   Atom        0.001583     -0.000451     -0.001133
    72   Atom        0.000669     -0.000284     -0.000384
    73   Atom        0.000534     -0.000162     -0.000373
    74   Atom        0.000312     -0.000132     -0.000181
    75   Atom        0.000422     -0.000230     -0.000192
    76   Atom        0.000292     -0.000124     -0.000168
 --------------------------------------------------------
                        XY            XZ            YZ
 --------------------------------------------------------
     1   Atom       -0.003216      0.003401     -0.000037
     2   Atom        0.005029     -0.018989      0.010352
     3   Atom        0.003331      0.001047     -0.008953
     4   Atom        0.003104      0.026716      0.031518
     5   Atom       -0.014345     -0.013372     -0.004021
     6   Atom        0.016978     -0.331324     -0.121084
     7   Atom       -0.003148      0.036372     -0.006320
     8   Atom       -0.001473     -0.011654     -0.003572
     9   Atom       -0.004657      0.021238      0.000944
    10   Atom       -0.004093     -0.007575     -0.000803
    11   Atom        0.002526      0.002947     -0.000934
    12   Atom        0.001940     -0.002698     -0.002256
    13   Atom        0.002356      0.003881      0.001080
    14   Atom        0.000358     -0.000897     -0.008596
    15   Atom        0.001666      0.009756      0.004098
    16   Atom       -0.000233     -0.003016     -0.000993
    17   Atom        0.000816      0.002937      0.005606
    18   Atom        0.000383     -0.000077     -0.000138
    19   Atom        0.000497     -0.000040      0.000000
    20   Atom        0.000598     -0.000153     -0.000142
    21   Atom        0.000871     -0.000264     -0.000223
    22   Atom       -0.003114     -0.016056      0.033027
    23   Atom        0.003458      0.004538     -0.008687
    24   Atom        0.000433      0.000433     -0.001294
    25   Atom       -0.000005      0.000111      0.000537
    26   Atom       -0.000363      0.000162     -0.000688
    27   Atom       -0.000361      0.000086     -0.000965
    28   Atom       -0.000485     -0.000281      0.000234
    29   Atom       -0.000469     -0.000271      0.000174
    30   Atom        0.000303     -0.000078     -0.000040
    31   Atom        0.000185     -0.000053     -0.000034
    32   Atom       -0.000503     -0.009263      0.003201
    33   Atom        0.017792      0.023027     -0.005054
    34   Atom       -0.000324     -0.008279      0.002221
    35   Atom       -0.000978     -0.000357      0.000263
    36   Atom        0.000404     -0.003377      0.001549
    37   Atom       -0.000053      0.000309     -0.000065
    38   Atom       -0.000206      0.000123     -0.000069
    39   Atom       -0.009001     -0.003065      0.003290
    40   Atom       -0.004606      0.007170     -0.006017
    41   Atom        0.008734      0.000439     -0.000031
    42   Atom        0.000430      0.000013     -0.000008
    43   Atom        0.000294     -0.000137     -0.000143
    44   Atom        0.000276     -0.000018     -0.000011
    45   Atom        0.000475      0.000078      0.000160
    46   Atom        0.000467     -0.000231     -0.000233
    47   Atom        0.000528     -0.000727     -0.000332
    48   Atom        0.000710      0.000561      0.000295
    49   Atom        0.000380      0.000097     -0.000022
    50   Atom       -0.000416     -0.000478      0.000286
    51   Atom       -0.000376      0.000820     -0.000362
    52   Atom       -0.000392      0.000500     -0.000348
    53   Atom       -0.002150      0.000810     -0.000530
    54   Atom       -0.001332     -0.001722      0.000681
    55   Atom       -0.000459     -0.000475      0.000453
    56   Atom       -0.000528     -0.000061      0.000007
    57   Atom       -0.001055     -0.000076      0.000097
    58   Atom       -0.000381     -0.000165      0.000142
    59   Atom       -0.000540     -0.000423      0.000357
    60   Atom       -0.000345     -0.000289      0.000188
    61   Atom        0.000283      0.000018      0.000009
    62   Atom        0.000247     -0.000130     -0.000057
    63   Atom        0.000182     -0.000026     -0.000022
    64   Atom        0.000138     -0.000040     -0.000022
    65   Atom        0.000176     -0.000085     -0.000062
    66   Atom       -0.000430      0.000683     -0.000253
    67   Atom       -0.001179     -0.000342      0.000093
    68   Atom       -0.001402     -0.000463      0.000204
    69   Atom       -0.000386     -0.000485      0.000003
    70   Atom       -0.000623      0.000909      0.000380
    71   Atom       -0.000890      0.000995     -0.000920
    72   Atom       -0.000320      0.000138      0.000033
    73   Atom       -0.000252      0.000085     -0.000098
    74   Atom       -0.000241      0.000289     -0.000075
    75   Atom       -0.000180      0.000343     -0.000106
    76   Atom       -0.000147      0.000162     -0.000044
 --------------------------------------------------------


 ---------------------------------------------------------------------------------
              Anisotropic Spin Dipole Couplings in Principal Axis System
 ---------------------------------------------------------------------------------

       Atom             a.u.   MegaHertz   Gauss  10(-4) cm-1        Axes

              Baa    -0.0186    -2.496    -0.891    -0.833  0.1193  0.9928 -0.0131
     1 C(13)  Bbb     0.0059     0.791     0.282     0.264  0.7411 -0.0978 -0.6642
              Bcc     0.0127     1.705     0.608     0.569  0.6607 -0.0696  0.7475
 
              Baa    -0.0563    -7.549    -2.694    -2.518 -0.4235  0.8984 -0.1163
     2 C(13)  Bbb    -0.0399    -5.358    -1.912    -1.787  0.8958  0.4344  0.0942
              Bcc     0.0962    12.907     4.606     4.305 -0.1351  0.0642  0.9887
 
              Baa    -0.0524    -7.027    -2.507    -2.344 -0.0178  0.1182  0.9928
     3 C(13)  Bbb     0.0225     3.023     1.079     1.008 -0.5039  0.8566 -0.1110
              Bcc     0.0298     4.004     1.429     1.336  0.8636  0.5023 -0.0443
 
              Baa    -0.1260   -16.907    -6.033    -5.639  0.9961 -0.0557 -0.0691
     4 C(13)  Bbb    -0.1124   -15.088    -5.384    -5.033  0.0491  0.9943 -0.0944
              Bcc     0.2384    31.995    11.417    10.672  0.0740  0.0906  0.9931
 
[...]
 
              Baa    -0.0164    -2.207    -0.787    -0.736 -0.6583  0.7518  0.0392
    13 C(13)  Bbb    -0.0119    -1.599    -0.571    -0.533  0.7469  0.6587 -0.0905
              Bcc     0.0284     3.806     1.358     1.269  0.0939  0.0303  0.9951
 
              Baa    -0.0235    -3.159    -1.127    -1.054  0.0223  0.2482  0.9685
    14 C(13)  Bbb     0.0111     1.486     0.530     0.496  0.8868 -0.4521  0.0954
              Bcc     0.0125     1.673     0.597     0.558  0.4615  0.8567 -0.2302
 
              Baa    -0.0173    -2.316    -0.827    -0.773 -0.6653  0.7431  0.0721
    15 C(13)  Bbb    -0.0157    -2.102    -0.750    -0.701  0.7181  0.6634 -0.2106
              Bcc     0.0329     4.419     1.577     1.474  0.2043  0.0883  0.9749
 
              Baa    -0.0211    -2.838    -1.013    -0.947  0.0960  0.0318  0.9949
    16 C(13)  Bbb     0.0104     1.395     0.498     0.465  0.9046  0.4142 -0.1006
              Bcc     0.0108     1.443     0.515     0.481 -0.4153  0.9096  0.0111
 
              Baa    -0.0192    -2.573    -0.918    -0.858  0.9619 -0.2722 -0.0237
    17 C(13)  Bbb    -0.0172    -2.312    -0.825    -0.771  0.2678  0.9564 -0.1163
              Bcc     0.0364     4.885     1.743     1.629  0.0543  0.1055  0.9929
 
              Baa    -0.0008    -0.104    -0.037    -0.035  0.0458  0.0869  0.9952
    18 C(13)  Bbb    -0.0001    -0.008    -0.003    -0.003  0.8648 -0.5021  0.0040
              Bcc     0.0008     0.112     0.040     0.037  0.5000  0.8605 -0.0982
 
              Baa    -0.0005    -0.064    -0.023    -0.021  0.8582 -0.4987  0.1216
    19 C(13)  Bbb    -0.0002    -0.025    -0.009    -0.008 -0.0934  0.0813  0.9923
              Bcc     0.0007     0.090     0.032     0.030  0.5048  0.8630 -0.0231
 
              Baa    -0.0004    -0.059    -0.021    -0.020 -0.4064  0.6826  0.6074
    20 C(13)  Bbb    -0.0004    -0.054    -0.019    -0.018  0.4849 -0.4023  0.7765
              Bcc     0.0008     0.113     0.040     0.038  0.7744  0.6101 -0.1675
 
              Baa    -0.0007    -0.097    -0.035    -0.033 -0.5730  0.8147  0.0891
    21 C(13)  Bbb    -0.0005    -0.061    -0.022    -0.020  0.2269  0.0532  0.9725
              Bcc     0.0012     0.159     0.057     0.053  0.7875  0.5775 -0.2153
 
              Baa    -0.0491    -6.587    -2.350    -2.197 -0.1962  0.9457 -0.2592
    22 C(13)  Bbb    -0.0447    -5.994    -2.139    -1.999  0.9733  0.2198  0.0652
              Bcc     0.0938    12.581     4.489     4.196 -0.1187  0.2395  0.9636
 
              Baa    -0.0393    -5.270    -1.881    -1.758 -0.0807  0.1643  0.9831
    23 C(13)  Bbb     0.0150     2.010     0.717     0.670 -0.2995  0.9368 -0.1811
              Bcc     0.0243     3.261     1.163     1.088  0.9507  0.3090  0.0264
 
              Baa    -0.0020    -0.273    -0.097    -0.091 -0.2552  0.3878  0.8857
    24 C(13)  Bbb     0.0002     0.033     0.012     0.011  0.9557 -0.0376  0.2918
              Bcc     0.0018     0.240     0.086     0.080  0.1465  0.9210 -0.3610
 
              Baa    -0.0016    -0.221    -0.079    -0.074  0.0122  0.9646 -0.2635
    25 C(13)  Bbb     0.0005     0.061     0.022     0.020 -0.1463  0.2624  0.9538
              Bcc     0.0012     0.159     0.057     0.053  0.9892  0.0269  0.1443
 
              Baa    -0.0026    -0.344    -0.123    -0.115 -0.0078  0.3097  0.9508
    26 C(13)  Bbb    -0.0003    -0.038    -0.014    -0.013  0.1274  0.9434 -0.3063
              Bcc     0.0028     0.382     0.136     0.127  0.9918 -0.1188  0.0468
 
              Baa    -0.0025    -0.339    -0.121    -0.113  0.0171  0.4582  0.8887
    27 C(13)  Bbb    -0.0002    -0.026    -0.009    -0.009  0.1246  0.8809 -0.4565
              Bcc     0.0027     0.365     0.130     0.122  0.9921 -0.1185  0.0420
 
              Baa    -0.0007    -0.088    -0.031    -0.029  0.1569  0.8047 -0.5725
    28 C(13)  Bbb    -0.0004    -0.053    -0.019    -0.018  0.3805  0.4857  0.7870
              Bcc     0.0011     0.142     0.051     0.047  0.9114 -0.3413 -0.2300
 
              Baa    -0.0004    -0.056    -0.020    -0.019  0.3014 -0.0602  0.9516
    29 C(13)  Bbb    -0.0003    -0.046    -0.016    -0.015  0.5319  0.8389 -0.1154
              Bcc     0.0008     0.102     0.036     0.034  0.7914 -0.5409 -0.2848
 
              Baa    -0.0002    -0.032    -0.011    -0.011 -0.5245  0.7327 -0.4336
    30 C(13)  Bbb    -0.0002    -0.029    -0.010    -0.010 -0.1323  0.4329  0.8917
              Bcc     0.0005     0.061     0.022     0.020  0.8411  0.5250 -0.1301
 
              Baa    -0.0001    -0.019    -0.007    -0.006 -0.4995  0.8377  0.2209
    31 C(13)  Bbb    -0.0001    -0.019    -0.007    -0.006  0.2469 -0.1068  0.9632
              Bcc     0.0003     0.037     0.013     0.012  0.8304  0.5356 -0.1535
 
              Baa    -0.0109     0.791     0.282     0.264  0.8478 -0.4162  0.3286
    32 O(17)  Bbb    -0.0095     0.689     0.246     0.230  0.4277  0.9030  0.0403
              Bcc     0.0205    -1.481    -0.528    -0.494 -0.3135  0.1063  0.9436
 
              Baa    -0.1211    -4.963    -1.771    -1.656 -0.4498  0.8919  0.0470
    33 S(33)  Bbb    -0.0761    -3.118    -1.113    -1.040  0.8894  0.4521 -0.0671
              Bcc     0.1971     8.082     2.884     2.696  0.0811 -0.0116  0.9966
 
              Baa    -0.0607    -8.140    -2.904    -2.715  0.0940 -0.0233  0.9953
    34 C(13)  Bbb     0.0277     3.714     1.325     1.239  0.9907  0.1006 -0.0912
              Bcc     0.0330     4.426     1.579     1.476 -0.0980  0.9947  0.0325
 
              Baa    -0.0031    -0.413    -0.147    -0.138  0.0559 -0.0547  0.9969
    35 C(13)  Bbb     0.0003     0.034     0.012     0.011  0.4284  0.9032  0.0256
              Bcc     0.0028     0.379     0.135     0.126  0.9018 -0.4257 -0.0740
 
              Baa    -0.0052    -0.703    -0.251    -0.235  0.4745 -0.2104  0.8547
    36 C(13)  Bbb     0.0021     0.282     0.101     0.094  0.4720  0.8805 -0.0453
              Bcc     0.0031     0.421     0.150     0.141  0.7430 -0.4249 -0.5171
 
              Baa    -0.0008    -0.102    -0.036    -0.034  0.9569  0.0269 -0.2893
    37 C(13)  Bbb     0.0003     0.040     0.014     0.013  0.2288  0.5438  0.8074
              Bcc     0.0005     0.062     0.022     0.021 -0.1790  0.8388 -0.5142
 
              Baa    -0.0003    -0.040    -0.014    -0.013 -0.1161  0.2128  0.9702
    38 C(13)  Bbb    -0.0002    -0.023    -0.008    -0.008  0.3929  0.9069 -0.1519
              Bcc     0.0005     0.062     0.022     0.021  0.9122 -0.3636  0.1889
 
              Baa    -0.0084    -4.496    -1.604    -1.500 -0.0188 -0.3499  0.9366
    39 H(1)   Bbb    -0.0055    -2.957    -1.055    -0.986  0.6227  0.7288  0.2848
              Bcc     0.0140     7.453     2.659     2.486  0.7822 -0.5886 -0.2041
 
              Baa    -0.0087    -4.618    -1.648    -1.540  0.0085  0.8481  0.5298
    40 H(1)   Bbb    -0.0042    -2.241    -0.800    -0.748  0.7209  0.3620 -0.5910
              Bcc     0.0129     6.860     2.448     2.288  0.6930 -0.3869  0.6083
 
              Baa    -0.0070    -3.718    -1.327    -1.240 -0.5615  0.8172  0.1301
    41 H(1)   Bbb    -0.0049    -2.589    -0.924    -0.864  0.0565 -0.1190  0.9913
              Bcc     0.0118     6.307     2.250     2.104  0.8255  0.5640  0.0207
 
              Baa    -0.0003    -0.179    -0.064    -0.060 -0.2032  0.1567  0.9665
    42 H(1)   Bbb    -0.0003    -0.146    -0.052    -0.049  0.7607 -0.5962  0.2565
              Bcc     0.0006     0.325     0.116     0.108  0.6164  0.7874  0.0020
 
              Baa    -0.0004    -0.194    -0.069    -0.065  0.2768  0.0842  0.9572
    43 H(1)   Bbb    -0.0002    -0.086    -0.031    -0.029  0.7973 -0.5762 -0.1798
              Bcc     0.0005     0.280     0.100     0.093  0.5364  0.8129 -0.2267
 
              Baa    -0.0002    -0.109    -0.039    -0.036  0.2624 -0.1691  0.9500
    44 H(1)   Bbb    -0.0002    -0.096    -0.034    -0.032  0.7331 -0.6053 -0.3102
              Bcc     0.0004     0.204     0.073     0.068  0.6275  0.7778 -0.0349
 
              Baa    -0.0004    -0.203    -0.073    -0.068  0.3544 -0.4663  0.8106
    45 H(1)   Bbb    -0.0003    -0.157    -0.056    -0.052  0.7012 -0.4410 -0.5603
              Bcc     0.0007     0.361     0.129     0.120  0.6186  0.7669  0.1707
 
              Baa    -0.0004    -0.200    -0.071    -0.067 -0.3808  0.7325  0.5642
    46 H(1)   Bbb    -0.0003    -0.174    -0.062    -0.058  0.5950 -0.2729  0.7559
              Bcc     0.0007     0.374     0.133     0.125  0.7078  0.6236 -0.3320
 
              Baa    -0.0008    -0.429    -0.153    -0.143  0.3742  0.1903  0.9076
    47 H(1)   Bbb    -0.0005    -0.263    -0.094    -0.088 -0.4165  0.9089 -0.0189
              Bcc     0.0013     0.692     0.247     0.231  0.8286  0.3710 -0.4194
 
              Baa    -0.0007    -0.364    -0.130    -0.121 -0.5555  0.8122  0.1780
    48 H(1)   Bbb    -0.0005    -0.288    -0.103    -0.096 -0.2347 -0.3586  0.9035
              Bcc     0.0012     0.651     0.232     0.217  0.7977  0.4601  0.3898
 
              Baa    -0.0006    -0.311    -0.111    -0.104 -0.1508  0.3648  0.9188
    49 H(1)   Bbb    -0.0005    -0.242    -0.086    -0.081 -0.2182  0.8942 -0.3909
              Bcc     0.0010     0.553     0.197     0.184  0.9642  0.2595  0.0553
 
              Baa    -0.0012    -0.616    -0.220    -0.205  0.0424 -0.6125  0.7893
    50 H(1)   Bbb    -0.0007    -0.390    -0.139    -0.130  0.2453  0.7722  0.5861
              Bcc     0.0019     1.006     0.359     0.335  0.9685 -0.1688 -0.1829
 
              Baa    -0.0012    -0.624    -0.223    -0.208 -0.2172  0.4267  0.8779
    51 H(1)   Bbb    -0.0006    -0.322    -0.115    -0.107  0.3089  0.8832 -0.3528
              Bcc     0.0018     0.946     0.337     0.315  0.9260 -0.1946  0.3236
 
              Baa    -0.0012    -0.642    -0.229    -0.214 -0.1410  0.2995  0.9436
    52 H(1)   Bbb    -0.0003    -0.173    -0.062    -0.058  0.2969  0.9221 -0.2482
              Bcc     0.0015     0.816     0.291     0.272  0.9444 -0.2452  0.2189
 
              Baa    -0.0024    -1.296    -0.463    -0.432  0.1977  0.7716  0.6047
    53 H(1)   Bbb    -0.0020    -1.064    -0.380    -0.355 -0.3241 -0.5307  0.7831
              Bcc     0.0044     2.361     0.842     0.787  0.9251 -0.3508  0.1451
 
              Baa    -0.0019    -1.005    -0.358    -0.335  0.3667 -0.1344  0.9206
    54 H(1)   Bbb    -0.0014    -0.740    -0.264    -0.247  0.3661  0.9305 -0.0100
              Bcc     0.0033     1.744     0.622     0.582  0.8553 -0.3407 -0.3904
 
              Baa    -0.0011    -0.580    -0.207    -0.193  0.1278 -0.3763  0.9177
    55 H(1)   Bbb    -0.0002    -0.119    -0.042    -0.040  0.4408  0.8504  0.2873
              Bcc     0.0013     0.698     0.249     0.233  0.8885 -0.3678 -0.2745
 
              Baa    -0.0005    -0.274    -0.098    -0.091  0.1132  0.1178  0.9866
    56 H(1)   Bbb    -0.0004    -0.191    -0.068    -0.064  0.4797  0.8631 -0.1581
              Bcc     0.0009     0.465     0.166     0.155  0.8701 -0.4911 -0.0412
 
              Baa    -0.0008    -0.404    -0.144    -0.135 -0.2250 -0.3450  0.9113
    57 H(1)   Bbb    -0.0007    -0.368    -0.131    -0.123  0.6049  0.6837  0.4082
              Bcc     0.0014     0.772     0.275     0.258  0.7639 -0.6431 -0.0548
 
              Baa    -0.0003    -0.163    -0.058    -0.054  0.1393 -0.2346  0.9621
    58 H(1)   Bbb    -0.0003    -0.141    -0.050    -0.047  0.6550  0.7505  0.0882
              Bcc     0.0006     0.304     0.108     0.101  0.7427 -0.6179 -0.2582
 
              Baa    -0.0005    -0.265    -0.094    -0.088  0.3378 -0.2681  0.9023
    59 H(1)   Bbb    -0.0004    -0.231    -0.082    -0.077  0.6418  0.7668 -0.0124
              Bcc     0.0009     0.495     0.177     0.165  0.6885 -0.5833 -0.4310
 
              Baa    -0.0004    -0.195    -0.069    -0.065  0.1870 -0.3860  0.9033
    60 H(1)   Bbb    -0.0003    -0.152    -0.054    -0.051  0.5635  0.7954  0.2232
              Bcc     0.0006     0.346     0.124     0.115  0.8047 -0.4673 -0.3662
 
              Baa    -0.0002    -0.125    -0.045    -0.042 -0.0393  0.0130  0.9991
    61 H(1)   Bbb    -0.0002    -0.119    -0.043    -0.040 -0.4698  0.8823 -0.0299
              Bcc     0.0005     0.245     0.087     0.082  0.8819  0.4705  0.0286
 
              Baa    -0.0002    -0.132    -0.047    -0.044  0.0161  0.4336  0.9009
    62 H(1)   Bbb    -0.0002    -0.128    -0.046    -0.043 -0.4251  0.8186 -0.3864
              Bcc     0.0005     0.260     0.093     0.087  0.9050  0.3767 -0.1975
 
              Baa    -0.0001    -0.069    -0.024    -0.023 -0.0603  0.2177  0.9741
    63 H(1)   Bbb    -0.0001    -0.066    -0.024    -0.022 -0.6278  0.7505 -0.2066
              Bcc     0.0003     0.135     0.048     0.045  0.7761  0.6240 -0.0914
 
              Baa    -0.0001    -0.060    -0.021    -0.020  0.0087  0.2629  0.9648
    64 H(1)   Bbb    -0.0001    -0.059    -0.021    -0.020 -0.4979  0.8378 -0.2238
              Bcc     0.0002     0.119     0.042     0.040  0.8672  0.4785 -0.1382
 
              Baa    -0.0001    -0.073    -0.026    -0.024 -0.0585  0.5003  0.8639
    65 H(1)   Bbb    -0.0001    -0.070    -0.025    -0.023 -0.6145  0.6639 -0.4261
              Bcc     0.0003     0.144     0.051     0.048  0.7867  0.5558 -0.2686
 
              Baa    -0.0010    -0.547    -0.195    -0.183 -0.5524 -0.0168  0.8334
    66 H(1)   Bbb     0.0000     0.006     0.002     0.002  0.6107  0.6723  0.4183
              Bcc     0.0010     0.541     0.193     0.180 -0.5674  0.7401 -0.3611
 
              Baa    -0.0026    -1.407    -0.502    -0.469  0.1970  0.9803 -0.0130
    67 H(1)   Bbb    -0.0008    -0.448    -0.160    -0.150  0.0831 -0.0035  0.9965
              Bcc     0.0035     1.855     0.662     0.619  0.9769 -0.1974 -0.0822
 
              Baa    -0.0013    -0.706    -0.252    -0.236 -0.1843 -0.6703  0.7189
    68 H(1)   Bbb    -0.0013    -0.700    -0.250    -0.233  0.3662  0.6319  0.6831
              Bcc     0.0026     1.406     0.502     0.469  0.9121 -0.3891 -0.1290
 
              Baa    -0.0011    -0.580    -0.207    -0.193  0.2236  0.0948  0.9701
    69 H(1)   Bbb    -0.0003    -0.154    -0.055    -0.051  0.2073  0.9679 -0.1423
              Bcc     0.0014     0.734     0.262     0.245  0.9524 -0.2329 -0.1968
 
              Baa    -0.0015    -0.784    -0.280    -0.261 -0.4014 -0.4494  0.7981
    70 H(1)   Bbb    -0.0001    -0.030    -0.011    -0.010  0.0616  0.8561  0.5131
              Bcc     0.0015     0.814     0.290     0.271  0.9138 -0.2551  0.3159
 
              Baa    -0.0018    -0.966    -0.345    -0.322 -0.1198  0.5014  0.8569
    71 H(1)   Bbb    -0.0006    -0.302    -0.108    -0.101  0.4992  0.7765 -0.3845
              Bcc     0.0024     1.268     0.453     0.423  0.8582 -0.3817  0.3433
 
              Baa    -0.0005    -0.246    -0.088    -0.082 -0.2650 -0.6171  0.7409
    72 H(1)   Bbb    -0.0003    -0.170    -0.061    -0.057  0.1451  0.7341  0.6634
              Bcc     0.0008     0.416     0.148     0.139  0.9533 -0.2833  0.1050
 
              Baa    -0.0004    -0.220    -0.078    -0.073  0.0181  0.3820  0.9240
    73 H(1)   Bbb    -0.0002    -0.116    -0.041    -0.039  0.3330  0.8691 -0.3658
              Bcc     0.0006     0.335     0.120     0.112  0.9428 -0.3143  0.1114
 
              Baa    -0.0003    -0.173    -0.062    -0.058 -0.4836 -0.2847  0.8277
    74 H(1)   Bbb    -0.0002    -0.115    -0.041    -0.038  0.1812  0.8926  0.4129
              Bcc     0.0005     0.287     0.103     0.096  0.8563 -0.3496  0.3800
 
              Baa    -0.0004    -0.188    -0.067    -0.063 -0.3307  0.2901  0.8980
    75 H(1)   Bbb    -0.0003    -0.146    -0.052    -0.049  0.3281  0.9276 -0.1788
              Bcc     0.0006     0.334     0.119     0.111  0.8849 -0.2355  0.4020
 
              Baa    -0.0002    -0.117    -0.042    -0.039 -0.3120 -0.0402  0.9492
    76 H(1)   Bbb    -0.0002    -0.091    -0.032    -0.030  0.2601  0.9573  0.1261
              Bcc     0.0004     0.208     0.074     0.069  0.9138 -0.2862  0.2882
 

 ---------------------------------------------------------------------------------

 1\1\ WCSS.PL-BEM-NODE01\SP\UB3LYP\6-311G(d,p)\C35H38N1O1S1(2)\USER\25-
 Nov-2022\0\\# b3lyp/6-311g(d,p) scrf=(smd,solvent=cyclohexane) em=gd3b
 j\\as2\\0,2\C,0,0.67975945,3.35196102,-0.64668253\C,0,-0.22829202,2.13
 625505,-0.48758508\C,0,0.34416522,0.86830711,-0.31028818\C,0,1.7353238
 1,0.7387388,-0.32871504\C,0,2.64889522,1.7785227,-0.41028846\N,0,2.116
 89561,3.04790907,-0.4021586\C,0,4.01079519,1.61028004,-0.49125434\C,0,
 4.57914985,0.29005525,-0.52397743\C,0,3.60601729,-0.69221609,-0.440402
 43\C,0,2.30417059,-0.5503502,-0.33452268\C,0,1.57670192,-1.74377626,-0
 .27301719\C,0,0.10167029,-1.57175908,-0.15150463\C,0,-0.4523748,-0.278
 31386,-0.19621811\C,0,-1.8377328,-0.12249935,-0.17295798\C,0,-2.658540
 51,-1.22941122,0.10456728\C,0,-2.11859515,-2.50255736,0.09538424\C,0,-
 0.74577763,-2.67551284,-0.00689118\C,0,-2.99219823,-3.74106049,0.22501
 885\C,0,-4.4212519,-3.4412546,-0.23625252\C,0,-4.96427671,-2.28412545,
 0.60259678\C,0,-4.15180042,-0.99543365,0.34144058\C,0,-2.41529563,1.12
 537355,-0.48244501\C,0,-1.60773408,2.2485448,-0.5959265\C,0,-4.6048310
 6,-0.0965033,-0.81682191\C,0,-3.9238518,1.27180499,-0.66413868\C,0,-2.
 21509752,3.62179553,-0.83387803\C,0,-2.59976394,4.26839178,0.50351133\
 C,0,-3.23015491,5.65360828,0.32377426\C,0,-3.64478579,6.29770674,1.646
 89363\C,0,-6.48550656,-2.07441306,0.47787915\C,0,-7.32034067,-3.228722
 02,1.03933686\O,0,-0.24748122,-3.96166428,0.0628532\S,0,4.29394309,-2.
 26695172,-0.49680155\C,0,2.36633886,-2.82839689,-0.34781707\C,0,6.0668
 8852,0.10369504,-0.63988472\C,0,6.69377491,-0.05304071,0.75043853\C,0,
 8.21699585,-0.21614186,0.70307068\C,0,8.83356503,-0.36014067,2.0948028
 9\H,0,0.37270291,4.13899324,0.0603038\H,0,0.58628129,3.73241356,-1.676
 71286\H,0,4.66555977,2.49107039,-0.54737578\H,0,-2.57882152,-4.5732751
 8,-0.36822725\H,0,-3.01065143,-4.08218536,1.27614585\H,0,-5.04193558,-
 4.3458082,-0.121981\H,0,-4.43703634,-3.18018505,-1.30847175\H,0,-4.777
 30116,-2.55228022,1.66177952\H,0,-4.26132364,-0.38308142,1.25925188\H,
 0,-4.35180481,-0.55069995,-1.79049249\H,0,-5.6977813,0.04919447,-0.816
 63951\H,0,-4.35951655,1.78689004,0.21059733\H,0,-4.16239671,1.88039213
 ,-1.5506684\H,0,-3.09698921,3.57521222,-1.49016284\H,0,-1.51606894,4.2
 8453169,-1.3675958\H,0,-1.70583145,4.35836983,1.14563792\H,0,-3.308442
 14,3.61875613,1.04571918\H,0,-4.11555624,5.56897088,-0.33131601\H,0,-2
 .51568031,6.31535565,-0.19710829\H,0,-4.08930565,7.29251166,1.48370981
 \H,0,-2.77731057,6.42397949,2.31469237\H,0,-4.3904177,5.67842262,2.170
 9568\H,0,-6.75949454,-1.91445868,-0.57968952\H,0,-6.76580238,-1.152123
 63,1.01837713\H,0,-7.14366934,-4.16148629,0.48211679\H,0,-8.39649288,-
 3.00118219,0.97773086\H,0,-7.07491873,-3.41249479,2.0976301\H,0,0.5305
 8078,-3.93702575,0.60491526\H,0,2.11791421,-3.89461035,-0.37699595\H,0
 ,6.51047627,0.98236997,-1.13793798\H,0,6.32869213,-0.75723171,-1.27683
 716\H,0,6.25491498,-0.92528571,1.26594468\H,0,6.44728435,0.8312602,1.3
 6485192\H,0,8.66274338,0.65701889,0.19426246\H,0,8.47119222,-1.1007245
 2,0.09308003\H,0,8.43467561,-1.24841212,2.61050988\H,0,8.60484255,0.52
 238324,2.71385171\H,0,9.92912095,-0.46283758,2.04378471\\Version=ES64L
 -G09RevE.01\State=2-A\HF=-1885.3541315\S2=0.78421\S2-1=0.\S2A=0.750811
 \RMSD=8.323e-09\Dipole=-1.4058881,-0.0998625,0.2057287\Quadrupole=11.0
 710876,-3.4339469,-7.6371407,-4.8529513,0.5884601,-4.3102077\PG=C01 [X
 (C35H38N1O1S1)]\\@


 ... THIS SEEMS PLAINLY ABSURD; BUT WHOEVER WISHES TO BECOME A 
 PHILOSOPHER MUST LEARN NOT TO BE FRIGHTENED BY ABSURDITIES.

                          -- BERTRAND RUSSELL
 Job cpu time:       0 days  3 hours 16 minutes  3.1 seconds.
 File lengths (MBytes):  RWF=   1222 Int=      0 D2E=      0 Chk=     55 Scr=      1
 Normal termination of Gaussian 09 at Fri Nov 25 10:48:55 2022.
